Created by Ryther's code on 2025-07-31 16:51:47.350571, modified by xyan11@uic.edu. 

    1408 atoms
    1680 bonds
    3408 angles
    3136 dihedrals
    688 impropers

    6 atom types
    8 bond types
    13 angle types
    3 dihedral types
    2 improper types

0.00000000 21.1146 xlo xhi
0.00000000 28.9588 ylo yhi
0.00000000 44.51853142 zlo zhi
0.0 0.0 -13.87961759 xy xz yz 

Masses 

    1    12.0107  #   C
    2    1.00794  #   H
    3    15.9994  #   O
    4    15.9994  #   O
    5  30.973762  #   P
    6  158.92535  #  Tb

Pair Coeffs

    1       0.10500      3.43085  #  C_R C_R
    2       0.04400      2.57113  #  H_ H_
    3       0.06000      3.11815  #  O_2_M O_2_M
    4       0.06000      3.11815  #  O_3 O_3
    5       0.30500      3.69456  #  P_3+5 P_3+5
    6       0.00700      3.07449  #  Tb8f4 Tb8f4

Bond Coeffs

    1     197.85214      2.33662  #  O_2_M Tb8f4 bond order=0.5
    2     191.95075      2.36025  #  O_3 Tb8f4 bond order=0.5
    3     452.21878      1.69087  #  O_3 P_3+5 bond order=1.0
    4     319.59823      1.78495  #  C_R P_3+5 bond order=1.0
    5     357.44038      1.08142  #  C_R H_ bond order=1.0
    6     462.65505      1.37926  #  C_R C_R bond order=1.5
    7     391.66951      1.45800  #  C_R C_R bond order=1.0
    8     714.55744      1.26901  #  C_R O_2_M bond order=1.5

Angle Coeffs

    1  fourier                 84.31913      0.34375      0.37500      0.28125  #  O_2_M Tb8f4 O_2_M
    2  fourier                 83.04140      0.34375      0.37500      0.28125  #  O_2_M Tb8f4 O_3
    3  fourier                170.11071      0.34375      0.37500      0.28125  #  C_R P_3+5 O_3
    4  fourier                130.71706      0.34375      0.37500      0.28125  #  C_R P_3+5 C_R
    5  cosine/periodic        108.07563           -1            3  #  C_R C_R P_3+5
    6  cosine/periodic        111.29751           -1            3  #  C_R C_R C_R
    7  cosine/periodic         57.28902           -1            3  #  C_R C_R H_
    8  cosine/periodic        102.18328           -1            3  #  C_R C_R C_R
    9  cosine/periodic        137.71425           -1            3  #  C_R C_R O_2_M
    10 cosine/periodic        206.77843           -1            3  #  O_2_M C_R O_2_M
    11 cosine/periodic         79.92926           -1            3  #  H_ C_R O_2_M
    12 fourier                247.43385      0.30023      0.26733      0.26675  #  P_3+5 O_3 Tb8f4
    13 cosine/periodic         76.88151           -1            3  #  C_R O_2_M Tb8f4

Dihedral Coeffs

    1       3.36856           -1            2  #  X C_R C_R X bond order=1.5
    2       1.25000           -1            2  #  X C_R C_R X bond order=1.0
    3       6.73711           -1            2  #  X C_R O_2_M X bond order=1.5

Improper Coeffs

    1       2.00000      1.00000     -1.00000      0.00000            1  #  C_R X X X O_2 present=False
    2      16.66667      1.00000     -1.00000      0.00000            1  #  C_R X X X O_2 present=True

Atoms # a, b, c, alpha, beta, gamma: 21.1146000000, 28.9588000000, 46.6320000000, 107.3160000000, 90.0000000000, 90.0000000000 $$$atoms$$$

    1 1     6      0.00000      0.50728      0.82348     17.13897   #   Tb1   0.02402500   0.21295500   0.38498500
    2 1     6      0.00000      0.50728     -3.99349     16.24993   #   Tb2   0.02402500   0.03704500   0.36501500
    3 1     6      0.00000     10.05002      6.71611      5.12030   #   Tb3   0.47597500   0.28704500   0.11501500
    4 1     6      0.00000     10.05002     11.53308      6.00933   #   Tb4   0.47597500   0.46295500   0.13498500
    5 1     5      0.00000      8.86528      2.57247     19.54319   #    P1   0.41986500   0.29923500   0.43899000
    6 1     5      0.00000      8.86528      8.73691     13.84571   #    P2   0.41986500   0.45076500   0.31101000
    7 1     5      0.00000      1.69202      4.96712      2.71608   #    P3   0.08013500   0.20076500   0.06101000
    8 1     5      0.00000      1.69202     -1.19732      8.41356   #    P4   0.08013500   0.04923500   0.18899000
    9 1     2      0.00000      7.42389      4.98708     18.83579   #    H1   0.35160000   0.37500000   0.42310000
   10 1     2      0.00000      7.55480      1.25256     17.47130   #    H2   0.35780000   0.23135000   0.39245000
   11 1     2      0.00000      9.08667      4.60944     21.54252   #    H3   0.43035000   0.39110000   0.48390000
   12 1     2      0.00000      9.31154     11.57851      1.56260   #    H4   0.44100000   0.41665000   0.03510000
   13 1     2      0.00000      8.97898      0.62190     21.60262   #    H5   0.42525000   0.25405000   0.48525000
   14 1     2      0.00000      5.38950      0.85045     16.85694   #    H6   0.25525000   0.21085000   0.37865000
   15 1     2      0.00000      4.09412      2.69769     20.16467   #    H7   0.19390000   0.31025000   0.45295000
   16 1     2      0.00000      6.28159      3.12141     20.77012   #    H8   0.29750000   0.33140000   0.46655000
   17 1     2      0.00000      0.70734      3.92598     18.96044   #    H9   0.03350000   0.33970000   0.42590000
   18 1     2      0.00000      1.31861      6.01957     18.30602   #   H10   0.06245000   0.40495000   0.41120000
   19 1     2      0.00000      8.03199      7.10261     18.14353   #   H11   0.38040000   0.44060000   0.40755000
   20 1     2      0.00000      9.24925      7.60273      1.63606   #   H12   0.43805000   0.28015000   0.03675000
   21 1     2      0.00000      7.42389      6.32230     14.55311   #   H13   0.35160000   0.37500000   0.32690000
   22 1     2      0.00000      7.55480     -4.42258     15.91760   #   H14   0.35780000   0.01865000   0.35755000
   23 1     2      0.00000      9.08667      6.69995     11.84638   #   H15   0.43035000   0.35890000   0.26610000
   24 1     2      0.00000      9.31154      6.67020      9.56703   #   H16   0.44100000   0.33333333   0.21490000
   25 1     2      0.00000      8.97898     10.68749     11.78628   #   H17   0.42525000   0.49595000   0.26475000
   26 1     2      0.00000      5.38950     -4.02046     16.53196   #   H18   0.25525000   0.03915000   0.37135000
   27 1     2      0.00000      4.09412      8.61169     13.22423   #   H19   0.19390000   0.43975000   0.29705000
   28 1     2      0.00000      6.28159      8.18798     12.61878   #   H20   0.29750000   0.41860000   0.28345000
   29 1     2      0.00000      0.70734      7.38341     14.42846   #   H21   0.03350000   0.41030000   0.32410000
   30 1     2      0.00000      1.31861      5.28982     15.08288   #   H22   0.06245000   0.34505000   0.33880000
   31 1     2      0.00000      8.03199      4.20678     15.24537   #   H23   0.38040000   0.30940000   0.34245000
   32 1     2      0.00000      9.24925     10.64646      9.49358   #   H24   0.43805000   0.46985000   0.21325000
   33 1     2      0.00000      3.13341      2.55251      3.42348   #   H25   0.14840000   0.12500000   0.07690000
   34 1     2      0.00000      3.00250      6.28703      4.78797   #   H26   0.14220000   0.26865000   0.10755000
   35 1     2      0.00000      1.47063      2.93015      0.71675   #   H27   0.06965000   0.10890000   0.01610000
   36 1     2      0.00000      1.24576     -4.03892     20.69667   #   H28   0.05900000   0.08335000   0.46490000
   37 1     2      0.00000      1.57832      6.91769      0.65665   #   H29   0.07475000   0.24595000   0.01475000
   38 1     2      0.00000      5.16780      6.68915      5.40232   #   H30   0.24475000   0.28915000   0.12135000
   39 1     2      0.00000      6.46318      4.84190      2.09460   #   H31   0.30610000   0.18975000   0.04705000
   40 1     2      0.00000      4.27571      4.41818      1.48914   #   H32   0.20250000   0.16860000   0.03345000
   41 1     2      0.00000      9.84996      3.61362      3.29882   #   H33   0.46650000   0.16030000   0.07410000
   42 1     2      0.00000      9.23869      1.52002      3.95325   #   H34   0.43755000   0.09505000   0.08880000
   43 1     2      0.00000      2.52531      0.43698      4.11574   #   H35   0.11960000   0.05940000   0.09245000
   44 1     2      0.00000      1.30805     -0.06314     20.62321   #   H36   0.06195000   0.21985000   0.46325000
   45 1     2      0.00000      3.13341      1.21729      7.70616   #   H37   0.14840000   0.12500000   0.17310000
   46 1     2      0.00000      3.00250     11.96217      6.34166   #   H38   0.14220000   0.48135000   0.14245000
   47 1     2      0.00000      1.47063      0.83964     10.41288   #   H39   0.06965000   0.14110000   0.23390000
   48 1     2      0.00000      1.24576      0.86939     12.69223   #   H40   0.05900000   0.16666667   0.28510000
   49 1     2      0.00000      1.57832     -3.14790     10.47298   #   H41   0.07475000   0.00405000   0.23525000
   50 1     2      0.00000      5.16780     11.56005      5.72731   #   H42   0.24475000   0.46085000   0.12865000
   51 1     2      0.00000      6.46318     -1.07210      9.03504   #   H43   0.30610000   0.06025000   0.20295000
   52 1     2      0.00000      4.27571     -0.64838      9.64049   #   H44   0.20250000   0.08140000   0.21655000
   53 1     2      0.00000      9.84996      0.15618      7.83081   #   H45   0.46650000   0.08970000   0.17590000
   54 1     2      0.00000      9.23869      2.24977      7.17639   #   H46   0.43755000   0.15495000   0.16120000
   55 1     2      0.00000      2.52531      3.33281      7.01389   #   H47   0.11960000   0.19060000   0.15755000
   56 1     2      0.00000      1.30805     -3.10687     12.76569   #   H48   0.06195000   0.03015000   0.28675000
   57 1     2      0.00000      7.72900     -1.58501     16.69445   #   H49   0.36605000   0.12500000   0.37500000
   58 1     2      0.00000      2.82830      9.12460      5.56482   #   H50   0.13395000   0.37500000   0.12500000
   59 1     1      0.00000      9.27353      4.22362     18.96712   #    C1   0.43920000   0.35005000   0.42605000
   60 1     1      0.00000      8.32338      5.18968     18.72004   #    C2   0.39420000   0.38075000   0.42050000
   61 1     1      0.00000      7.15785      2.24351     19.17858   #    C3   0.33900000   0.28395000   0.43080000
   62 1     1      0.00000      6.86119      1.55236     18.01442   #    C4   0.32495000   0.24755000   0.40465000
   63 1     1      0.00000      9.03177      2.61275     21.32883   #    C5   0.42775000   0.31985000   0.47910000
   64 1     1      0.00000      9.12151      3.80779     22.00996   #    C6   0.43200000   0.36845000   0.49440000
   65 1     1      0.00000      9.26086     10.76311      1.11742   #    C7   0.43860000   0.38370000   0.02510000
   66 1     1      0.00000      9.06344      1.43724     22.04335   #    C8   0.42925000   0.28695000   0.49515000
   67 1     1      0.00000      5.56475      1.30564     17.64937   #    C9   0.26355000   0.23510000   0.39645000
   68 1     1      0.00000      4.49847      1.72771     18.45516   #   C10   0.21305000   0.25835000   0.41455000
   69 1     1      0.00000      4.78668      2.40652     19.61709   #   C11   0.22670000   0.29430000   0.44065000
   70 1     1      0.00000      6.10318      2.66338     19.98214   #   C12   0.28905000   0.30710000   0.44885000
   71 1     1      0.00000      3.09751      1.43212     18.00997   #   C13   0.14670000   0.24335000   0.40455000
   72 1     1      0.00000      0.05068      4.56375     18.79572   #   C14   0.00240000   0.35995000   0.42220000
   73 1     1      0.00000      0.41807      5.80861     18.39283   #   C15   0.01980000   0.39860000   0.41315000
   74 1     1      0.00000     10.01677      6.76048     18.11236   #   C16   0.47440000   0.42845000   0.40685000
   75 1     1      0.00000      8.68443      6.45893     18.29934   #   C17   0.41130000   0.42005000   0.41105000
   76 1     1      0.00000     10.39577      8.12164     17.58259   #   C18   0.49235000   0.46975000   0.39495000
   77 1     1      0.00000      9.21863      8.40067      1.16193   #   C19   0.43660000   0.30260000   0.02610000
   78 1     1      0.00000      9.32737      9.59924      1.83639   #   C20   0.44175000   0.35125000   0.04125000
   79 1     1      0.00000      9.50579      9.64974      3.32776   #   C21   0.45020000   0.36905000   0.07475000
   80 1     1      0.00000      9.27353      7.08577     14.42178   #   C22   0.43920000   0.39995000   0.32395000
   81 1     1      0.00000      8.32338      6.11970     14.66886   #   C23   0.39420000   0.36925000   0.32950000
   82 1     1      0.00000      7.15785      9.06587     14.21032   #   C24   0.33900000   0.46605000   0.31920000
   83 1     1      0.00000      6.86119     -4.72238     15.37447   #   C25   0.32495000   0.00245000   0.34535000
   84 1     1      0.00000      9.03177      8.69664     12.06007   #   C26   0.42775000   0.43015000   0.27090000
   85 1     1      0.00000      9.12151      7.50160     11.37894   #   C27   0.43200000   0.38155000   0.25560000
   86 1     1      0.00000      9.26086      7.48608     10.01222   #   C28   0.43860000   0.36630000   0.22490000
   87 1     1      0.00000      9.06344      9.87215     11.34555   #   C29   0.42925000   0.46305000   0.25485000
   88 1     1      0.00000      5.56475     -4.47565     15.73953   #   C30   0.26355000   0.01490000   0.35355000
   89 1     1      0.00000      4.49847      9.58168     14.93374   #   C31   0.21305000   0.49165000   0.33545000
   90 1     1      0.00000      4.78668      8.90287     13.77181   #   C32   0.22670000   0.45570000   0.30935000
   91 1     1      0.00000      6.10318      8.64601     13.40676   #   C33   0.28905000   0.44290000   0.30115000
   92 1     1      0.00000      3.09751     -4.60214     15.37893   #   C34   0.14670000   0.00665000   0.34545000
   93 1     1      0.00000      0.05068      6.74564     14.59317   #   C35   0.00240000   0.39005000   0.32780000
   94 1     1      0.00000      0.41807      5.50077     14.99607   #   C36   0.01980000   0.35140000   0.33685000
   95 1     1      0.00000     10.01677      4.54891     15.27653   #   C37   0.47440000   0.32155000   0.34315000
   96 1     1      0.00000      8.68443      4.85046     15.08956   #   C38   0.41130000   0.32995000   0.33895000
   97 1     1      0.00000     10.39577      3.18775     15.80630   #   C39   0.49235000   0.28025000   0.35505000
   98 1     1      0.00000      9.21863      9.84852      9.96770   #   C40   0.43660000   0.44740000   0.22390000
   99 1     1      0.00000      9.32737      8.64995      9.29324   #   C41   0.44175000   0.39875000   0.20875000
  100 1     1      0.00000      9.50579      8.59945      7.80187   #   C42   0.45020000   0.38095000   0.17525000
  101 1     1      0.00000      1.28377      3.31597      3.29215   #   C43   0.06080000   0.14995000   0.07395000
  102 1     1      0.00000      2.23392      2.34991      3.53922   #   C44   0.10580000   0.11925000   0.07950000
  103 1     1      0.00000      3.39945      5.29608      3.08068   #   C45   0.16100000   0.21605000   0.06920000
  104 1     1      0.00000      3.69611      5.98723      4.24484   #   C46   0.17505000   0.25245000   0.09535000
  105 1     1      0.00000      1.52553      4.92684      0.93044   #   C47   0.07225000   0.18015000   0.02090000
  106 1     1      0.00000      1.43579      3.73180      0.24930   #   C48   0.06800000   0.13155000   0.00560000
  107 1     1      0.00000      1.29644     -3.22352     21.14185   #   C49   0.06140000   0.11630000   0.47490000
  108 1     1      0.00000      1.49386      6.10236      0.21591   #   C50   0.07075000   0.21305000   0.00485000
  109 1     1      0.00000      4.99255      6.23395      4.60989   #   C51   0.23645000   0.26490000   0.10355000
  110 1     1      0.00000      6.05883      5.81188      3.80411   #   C52   0.28695000   0.24165000   0.08545000
  111 1     1      0.00000      5.77062      5.13307      2.64217   #   C53   0.27330000   0.20570000   0.05935000
  112 1     1      0.00000      4.45412      4.87621      2.27712   #   C54   0.21095000   0.19290000   0.05115000
  113 1     1      0.00000      7.45979      6.10747      4.24929   #   C55   0.35330000   0.25665000   0.09545000
  114 1     1      0.00000     10.50662      2.97585      3.46354   #   C56   0.49760000   0.14005000   0.07780000
  115 1     1      0.00000     10.13923      1.73098      3.86643   #   C57   0.48020000   0.10140000   0.08685000
  116 1     1      0.00000      0.54053      0.77912      4.14690   #   C58   0.02560000   0.07155000   0.09315000
  117 1     1      0.00000      1.87287      1.08066      3.95992   #   C59   0.08870000   0.07995000   0.08895000
  118 1     1      0.00000      0.16153     -0.58205      4.67667   #   C60   0.00765000   0.03025000   0.10505000
  119 1     1      0.00000      1.33867     -0.86108     21.09733   #   C61   0.06340000   0.19740000   0.47390000
  120 1     1      0.00000      1.22993     -2.05965     20.42288   #   C62   0.05825000   0.14875000   0.45875000
  121 1     1      0.00000      1.05151     -2.11015     18.93151   #   C63   0.04980000   0.13095000   0.42525000
  122 1     1      0.00000      1.28377      0.45382      7.83749   #   C64   0.06080000   0.10005000   0.17605000
  123 1     1      0.00000      2.23392      1.41989      7.59041   #   C65   0.10580000   0.13075000   0.17050000
  124 1     1      0.00000      3.39945     -1.52628      8.04895   #   C66   0.16100000   0.03395000   0.18080000
  125 1     1      0.00000      3.69611     12.26197      6.88479   #   C67   0.17505000   0.49755000   0.15465000
  126 1     1      0.00000      1.52553     -1.15705     10.19920   #   C68   0.07225000   0.06985000   0.22910000
  127 1     1      0.00000      1.43579      0.03799     10.88033   #   C69   0.06800000   0.11845000   0.24440000
  128 1     1      0.00000      1.29644      0.05351     12.24705   #   C70   0.06140000   0.13370000   0.27510000
  129 1     1      0.00000      1.49386     -2.33256     10.91372   #   C71   0.07075000   0.03695000   0.24515000
  130 1     1      0.00000      4.99255     12.01524      6.51974   #   C72   0.23645000   0.48510000   0.14645000
  131 1     1      0.00000      6.05883     -2.04209      7.32552   #   C73   0.28695000   0.00835000   0.16455000
  132 1     1      0.00000      5.77062     -1.36327      8.48746   #   C74   0.27330000   0.04430000   0.19065000
  133 1     1      0.00000      4.45412     -1.10641      8.85251   #   C75   0.21095000   0.05710000   0.19885000
  134 1     1      0.00000      7.45979     12.14173      6.88034   #   C76   0.35330000   0.49335000   0.15455000
  135 1     1      0.00000     10.50662      0.79395      7.66609   #   C77   0.49760000   0.10995000   0.17220000
  136 1     1      0.00000     10.13923      2.03882      7.26320   #   C78   0.48020000   0.14860000   0.16315000
  137 1     1      0.00000      0.54053      2.99068      6.98273   #   C79   0.02560000   0.17845000   0.15685000
  138 1     1      0.00000      1.87287      2.68913      7.16971   #   C80   0.08870000   0.17005000   0.16105000
  139 1     1      0.00000      0.16153      4.35185      6.45296   #   C81   0.00765000   0.21975000   0.14495000
  140 1     1      0.00000      1.33867     -2.30893     12.29157   #   C82   0.06340000   0.05260000   0.27610000
  141 1     1      0.00000      1.22993     -1.11036     12.96602   #   C83   0.05825000   0.10125000   0.29125000
  142 1     1      0.00000      1.05151     -1.05986     14.45739   #   C84   0.04980000   0.11905000   0.32475000
  143 1     1      0.00000      8.65910     -1.58501     16.69445   #   C85   0.41010000   0.12500000   0.37500000
  144 1     1      0.00000      1.89820      9.12460      5.56482   #   C86   0.08990000   0.37500000   0.12500000
  145 1     4      0.00000      9.76339      1.53859     18.93173   #    O1   0.46240000   0.25695000   0.42525500
  146 1     3      0.00000      2.13996      1.83534     18.72761   #    O2   0.10135000   0.26500000   0.42067000
  147 1     3      0.00000      2.90642      0.78647     16.95533   #    O3   0.13765000   0.20970000   0.38086000
  148 1     3      0.00000      1.04834      8.35040     17.31793   #    O4   0.04965000   0.47480000   0.38900500
  149 1     3      0.00000      9.51952      8.97943     17.34843   #    O5   0.45085000   0.49685000   0.38969000
  150 1     3      0.00000      9.51213      8.58453      3.94857   #    O6   0.45050000   0.33895000   0.08869500
  151 1     3      0.00000      9.61559     10.77478      3.84796   #    O7   0.45540000   0.41350000   0.08643500
  152 1     3      0.00000      9.15529     -0.48714     16.73518   #    O8   0.43360000   0.16335000   0.37591500
  153 1     4      0.00000      9.76339      9.77080     14.45717   #    O9   0.46240000   0.49305000   0.32474500
  154 1     3      0.00000      2.13996      9.47404     14.66129   #   O10   0.10135000   0.48500000   0.32933000
  155 1     3      0.00000      2.90642     -3.95648     16.43357   #   O11   0.13765000   0.04030000   0.36914000
  156 1     3      0.00000      1.04834      2.95899     16.07097   #   O12   0.04965000   0.27520000   0.36099500
  157 1     3      0.00000      9.51952      2.32996     16.04047   #   O13   0.45085000   0.25315000   0.36031000
  158 1     3      0.00000      9.51213      9.66466      7.18106   #   O14   0.45050000   0.41105000   0.16130500
  159 1     3      0.00000      9.61559      7.47442      7.28167   #   O15   0.45540000   0.33650000   0.16356500
  160 1     3      0.00000      9.15529     -2.68288     16.65371   #   O16   0.43360000   0.08665000   0.37408500
  161 1     4      0.00000      0.79391      6.00100      3.32754   #   O17   0.03760000   0.24305000   0.07474500
  162 1     3      0.00000      8.41734      5.70425      3.53166   #   O18   0.39865000   0.23500000   0.07933000
  163 1     3      0.00000      7.65088      6.75312      5.30394   #   O19   0.36235000   0.29030000   0.11914000
  164 1     3      0.00000      9.50896     -0.81081      4.94133   #   O20   0.45035000   0.02520000   0.11099500
  165 1     3      0.00000      1.03778     -1.43984      4.91084   #   O21   0.04915000   0.00315000   0.11031000
  166 1     3      0.00000      1.04517     -1.04494     18.31069   #   O22   0.04950000   0.16105000   0.41130500
  167 1     3      0.00000      0.94171     -3.23519     18.41131   #   O23   0.04460000   0.08650000   0.41356500
  168 1     3      0.00000      1.40201      8.02673      5.52408   #   O24   0.06640000   0.33665000   0.12408500
  169 1     4      0.00000      0.79391     -2.23121      7.80210   #   O25   0.03760000   0.00695000   0.17525500
  170 1     3      0.00000      8.41734     -1.93445      7.59798   #   O26   0.39865000   0.01500000   0.17067000
  171 1     3      0.00000      7.65088     11.49607      5.82570   #   O27   0.36235000   0.45970000   0.13086000
  172 1     3      0.00000      9.50896      4.58060      6.18830   #   O28   0.45035000   0.22480000   0.13900500
  173 1     3      0.00000      1.03778      5.20964      6.21879   #   O29   0.04915000   0.24685000   0.13969000
  174 1     3      0.00000      1.04517     -2.12507     15.07820   #   O30   0.04950000   0.08895000   0.33869500
  175 1     3      0.00000      0.94171      0.06517     14.97759   #   O31   0.04460000   0.16350000   0.33643500
  176 1     3      0.00000      1.40201     10.22247      5.60555   #   O32   0.06640000   0.41335000   0.12591500
  177 1     6      0.00000      0.50728     -6.11633     39.39823   #   Tb1   0.02402500   0.21295500   0.88498500
  178 1     6      0.00000      0.50728    -10.93330     38.50920   #   Tb2   0.02402500   0.03704500   0.86501500
  179 1     6      0.00000     10.05002     -0.22369     27.37956   #   Tb3   0.47597500   0.28704500   0.61501500
  180 1     6      0.00000     10.05002      4.59327     28.26860   #   Tb4   0.47597500   0.46295500   0.63498500
  181 1     5      0.00000      8.86528     -4.36734     41.80246   #    P1   0.41986500   0.29923500   0.93899000
  182 1     5      0.00000      8.86528      1.79710     36.10497   #    P2   0.41986500   0.45076500   0.81101000
  183 1     5      0.00000      1.69202     -1.97269     24.97534   #    P3   0.08013500   0.20076500   0.56101000
  184 1     5      0.00000      1.69202     -8.13713     30.67282   #    P4   0.08013500   0.04923500   0.68899000
  185 1     2      0.00000      7.42389     -1.95273     41.09506   #    H1   0.35160000   0.37500000   0.92310000
  186 1     2      0.00000      7.55480     -5.68725     39.73056   #    H2   0.35780000   0.23135000   0.89245000
  187 1     2      0.00000      9.08667     -2.33037     43.80178   #    H3   0.43035000   0.39110000   0.98390000
  188 1     2      0.00000      9.31154      4.63870     23.82187   #    H4   0.44100000   0.41665000   0.53510000
  189 1     2      0.00000      8.97898     -6.31791     43.86188   #    H5   0.42525000   0.25405000   0.98525000
  190 1     2      0.00000      5.38950     -6.08936     39.11621   #    H6   0.25525000   0.21085000   0.87865000
  191 1     2      0.00000      4.09412     -4.24211     42.42393   #    H7   0.19390000   0.31025000   0.95295000
  192 1     2      0.00000      6.28159     -3.81840     43.02939   #    H8   0.29750000   0.33140000   0.96655000
  193 1     2      0.00000      0.70734     -3.01383     41.21971   #    H9   0.03350000   0.33970000   0.92590000
  194 1     2      0.00000      1.31861     -0.92024     40.56529   #   H10   0.06245000   0.40495000   0.91120000
  195 1     2      0.00000      8.03199      0.16280     40.40279   #   H11   0.38040000   0.44060000   0.90755000
  196 1     2      0.00000      9.24925      0.66292     23.89532   #   H12   0.43805000   0.28015000   0.53675000
  197 1     2      0.00000      7.42389     -0.61751     36.81237   #   H13   0.35160000   0.37500000   0.82690000
  198 1     2      0.00000      7.55480    -11.36238     38.17687   #   H14   0.35780000   0.01865000   0.85755000
  199 1     2      0.00000      9.08667     -0.23986     34.10565   #   H15   0.43035000   0.35890000   0.76610000
  200 1     2      0.00000      9.31154     -0.26961     31.82630   #   H16   0.44100000   0.33333333   0.71490000
  201 1     2      0.00000      8.97898      3.74768     34.04555   #   H17   0.42525000   0.49595000   0.76475000
  202 1     2      0.00000      5.38950    -10.96027     38.79122   #   H18   0.25525000   0.03915000   0.87135000
  203 1     2      0.00000      4.09412      1.67188     35.48350   #   H19   0.19390000   0.43975000   0.79705000
  204 1     2      0.00000      6.28159      1.24817     34.87804   #   H20   0.29750000   0.41860000   0.78345000
  205 1     2      0.00000      0.70734      0.44360     36.68772   #   H21   0.03350000   0.41030000   0.82410000
  206 1     2      0.00000      1.31861     -1.64999     37.34214   #   H22   0.06245000   0.34505000   0.83880000
  207 1     2      0.00000      8.03199     -2.73303     37.50464   #   H23   0.38040000   0.30940000   0.84245000
  208 1     2      0.00000      9.24925      3.70665     31.75284   #   H24   0.43805000   0.46985000   0.71325000
  209 1     2      0.00000      3.13341     -4.38730     25.68274   #   H25   0.14840000   0.12500000   0.57690000
  210 1     2      0.00000      3.00250     -0.65278     27.04723   #   H26   0.14220000   0.26865000   0.60755000
  211 1     2      0.00000      1.47063     -4.00966     22.97601   #   H27   0.06965000   0.10890000   0.51610000
  212 1     2      0.00000      1.24576    -10.97873     42.95593   #   H28   0.05900000   0.08335000   0.96490000
  213 1     2      0.00000      1.57832     -0.02212     22.91591   #   H29   0.07475000   0.24595000   0.51475000
  214 1     2      0.00000      5.16780     -0.25066     27.66159   #   H30   0.24475000   0.28915000   0.62135000
  215 1     2      0.00000      6.46318     -2.09791     24.35386   #   H31   0.30610000   0.18975000   0.54705000
  216 1     2      0.00000      4.27571     -2.52163     23.74841   #   H32   0.20250000   0.16860000   0.53345000
  217 1     2      0.00000      9.84996     -3.32619     25.55809   #   H33   0.46650000   0.16030000   0.57410000
  218 1     2      0.00000      9.23869     -5.41978     26.21251   #   H34   0.43755000   0.09505000   0.58880000
  219 1     2      0.00000      2.52531     -6.50283     26.37500   #   H35   0.11960000   0.05940000   0.59245000
  220 1     2      0.00000      1.30805     -7.00295     42.88248   #   H36   0.06195000   0.21985000   0.96325000
  221 1     2      0.00000      3.13341     -5.72252     29.96542   #   H37   0.14840000   0.12500000   0.67310000
  222 1     2      0.00000      3.00250      5.02236     28.60093   #   H38   0.14220000   0.48135000   0.64245000
  223 1     2      0.00000      1.47063     -6.10016     32.67215   #   H39   0.06965000   0.14110000   0.73390000
  224 1     2      0.00000      1.24576     -6.07042     34.95150   #   H40   0.05900000   0.16666667   0.78510000
  225 1     2      0.00000      1.57832    -10.08771     32.73225   #   H41   0.07475000   0.00405000   0.73525000
  226 1     2      0.00000      5.16780      4.62024     27.98657   #   H42   0.24475000   0.46085000   0.62865000
  227 1     2      0.00000      6.46318     -8.01191     31.29430   #   H43   0.30610000   0.06025000   0.70295000
  228 1     2      0.00000      4.27571     -7.58819     31.89975   #   H44   0.20250000   0.08140000   0.71655000
  229 1     2      0.00000      9.84996     -6.78363     30.09008   #   H45   0.46650000   0.08970000   0.67590000
  230 1     2      0.00000      9.23869     -4.69004     29.43565   #   H46   0.43755000   0.15495000   0.66120000
  231 1     2      0.00000      2.52531     -3.60700     29.27316   #   H47   0.11960000   0.19060000   0.65755000
  232 1     2      0.00000      1.30805    -10.04668     35.02495   #   H48   0.06195000   0.03015000   0.78675000
  233 1     2      0.00000      7.72900     -8.52482     38.95371   #   H49   0.36605000   0.12500000   0.87500000