Created by Ryther's code on 2025-07-29 22:46:52.475141, modified by xyan11@uic.edu. 

    448 atoms
    512 bonds
    880 angles
    1008 dihedrals
    208 impropers

    5 atom types
    8 bond types
    12 angle types
    5 dihedral types
    2 improper types

0.00000000 30.52049269 xlo xhi
0.00000000 20.60450103 ylo yhi
0.00000000 29.8620612 zlo zhi
-0.04686387 -1.47190449 2.31911497 xy xz yz 

Masses 

    1    12.0107  #   C
    2    1.00794  #   H
    3    14.0067  #   N
    4    15.9994  #   O
    5      65.38  #  Zn

Pair Coeffs

    1       0.10500      3.43085  #  C_R C_R
    2       0.04400      2.57113  #  H_ H_
    3       0.06900      3.26069  #  N_2 N_2
    4       0.06000      3.11815  #  O_2_M O_2_M
    5       0.06000      2.58361  #  Zn6f3 Zn6f3

Bond Coeffs

    1      54.94924      2.40433  #  O_2_M Zn6f3 bond order=0.5
    2      55.07699      2.48452  #  N_2 Zn6f3 bond order=0.5
    3     357.44038      1.08142  #  C_R H_ bond order=1.0
    4     462.65505      1.37926  #  C_R C_R bond order=1.5
    5     931.53598      1.20133  #  C_R N_2 bond order=3.0
    6     523.75938      1.32339  #  C_R C_R bond order=2.0
    7     391.66951      1.45800  #  C_R C_R bond order=1.0
    8     714.55744      1.26901  #  C_R O_2_M bond order=1.5

Angle Coeffs

    1  cosine/periodic         70.47472            1            4  #  N_2 Zn6f3 O_2_M
    2  cosine/periodic         67.02484            1            4  #  O_2_M Zn6f3 O_2_M
    3  cosine/periodic        179.74893           -1            3  #  C_R C_R N_2
    4  cosine/periodic        118.27773           -1            3  #  C_R C_R C_R
    5  cosine/periodic         57.28902           -1            3  #  C_R C_R H_
    6  cosine/periodic         61.73740           -1            3  #  C_R C_R H_
    7  cosine/periodic        102.18328           -1            3  #  C_R C_R C_R
    8  cosine/periodic        111.29751           -1            3  #  C_R C_R C_R
    9  cosine/periodic        137.71425           -1            3  #  C_R C_R O_2_M
    10 cosine/periodic        206.77843           -1            3  #  O_2_M C_R O_2_M
    11 fourier                 48.02888      0.36401      0.41847      0.28800  #  C_R N_2 Zn6f3
    12 cosine/periodic         21.77718           -1            3  #  C_R O_2_M Zn6f3

Dihedral Coeffs

    1       6.73711           -1            2  #  X C_R C_R X bond order=1.5
    2      27.96100           -1            2  #  X C_R N_2 X bond order=3.0
    3       4.87169           -1            2  #  X C_R C_R X bond order=2.0
    4       1.25000           -1            2  #  X C_R C_R X bond order=1.0
    5       6.73711           -1            2  #  X C_R O_2_M X bond order=1.5

Improper Coeffs

    1       2.00000      1.00000     -1.00000      0.00000            1  #  C_R X X X O_2 present=False
    2      16.66667      1.00000     -1.00000      0.00000            1  #  C_R X X X O_2 present=True

Atoms # a, b, c, alpha, beta, gamma: 30.5204926950, 20.6045543238, 29.9881225808, 85.5582298134, 92.8133743108, 90.1303160533 $$$atoms$$$

    1 1     5      0.00000     14.55444      4.38927      0.95702   #   Zn1   0.47874163   0.20941754   0.03204794
    2 1     5      0.00000      2.22104      4.39597      1.10114   #   Zn2   0.07487162   0.20919958   0.03687433
    3 1     2      0.00000      9.01965      5.46671     14.13169   #    H1   0.31867557   0.21205210   0.47323212
    4 1     2      0.00000      9.40270      4.44937      2.24116   #    H2   0.31201613   0.20749440   0.07505026
    5 1     2      0.00000      6.63684      5.49553     14.74793   #    H3   0.24159712   0.21112850   0.49386832
    6 1     2      0.00000      7.01989      4.47819      2.85740   #    H4   0.23493771   0.20657041   0.09568652
    7 1     2      0.00000     14.36233      9.54001      1.70645   #    H6   0.47403684   0.45657422   0.05714429
    8 1     2      0.00000      2.57081      7.41229      0.27916   #    H8   0.08523402   0.35868925   0.00934835
    9 1     2      0.00000      2.95314     10.71000     14.74740   #    H9   0.12128895   0.46420447   0.49385080
   10 1     2      0.00000      2.58453      1.38123      0.27916   #   H10   0.08523402   0.06598308   0.00934831
   11 1     2      0.00000      1.52448      3.52003     12.05428   #   H11   0.06960951   0.12540406   0.40366539
   12 1     2      0.00000      1.65379      3.33915      9.62358   #   H12   0.06992112   0.12578675   0.32226768
   13 1     2      0.00000     14.29473      6.74937      9.22991   #   H13   0.48372069   0.29277885   0.30908487
   14 1     2      0.00000     14.18526      6.94665     11.65988   #   H14   0.48405891   0.29319484   0.39045809
   15 1     2      0.00000      0.59194      7.04682      7.40336   #   H15   0.03183339   0.31409952   0.24791862
   16 1     2      0.00000      0.69842      6.85953      4.97247   #   H16   0.03139663   0.31417208   0.16651451
   17 1     2      0.00000      0.41137      2.56185      5.29192   #   H17   0.02218506   0.10438843   0.17721219
   18 1     2      0.00000      0.27931      2.75192      7.72178   #   H18   0.02178262   0.10445467   0.25858147
   19 1     1      0.00000     11.43243      4.37193      0.58568   #    C1   0.37585036   0.20997588   0.01961299
   20 1     1      0.00000     10.03490      4.35605      0.24607   #    C2   0.32951287   0.21048505   0.00824018
   21 1     1      0.00000      9.10389      4.40062      1.19891   #    C3   0.30054506   0.20905676   0.04014828
   22 1     1      0.00000      7.67160      4.38473      0.85914   #    C4   0.25306819   0.20956604   0.02877034
   23 1     1      0.00000      6.74059      4.42929      1.81198   #    C5   0.22410042   0.20813762   0.06067840
   24 1     1      0.00000      5.34306      4.41341      1.47237   #    C6   0.17776289   0.20864668   0.04930562
   25 1     1      0.00000      0.76662      0.46470      1.02909   #    C7   0.02680873   0.01867465   0.03446134
   26 1     1      0.00000      0.10333      9.54228      1.29388   #    C8   0.00617886   0.45823971   0.04332869
   27 1     1      0.00000      0.74875      8.32054      1.02909   #    C9   0.02680871   0.39994277   0.03446135
   28 1     1      0.00000      2.04825      8.33617      0.49361   #   C10   0.06852633   0.40271969   0.01652982
   29 1     1      0.00000      2.68826      9.54816      0.22877   #   C11   0.08916018   0.46253958   0.00766074
   30 1     1      0.00000      2.06618      0.45498      0.49361   #   C12   0.06852633   0.02022116   0.01652979
   31 1     1      0.00000      0.21509      5.24858     12.04871   #   C13   0.02682728   0.20931692   0.40347892
   32 1     1      0.00000      0.97698      4.23141     11.44860   #   C14   0.05074888   0.16221242   0.38338283
   33 1     1      0.00000      1.04489      4.12280     10.05672   #   C15   0.05072609   0.16218709   0.33677263
   34 1     1      0.00000      0.35358      5.02931      9.23430   #   C16   0.02681956   0.20928286   0.30923173
   35 1     1      0.00000     -0.40763      6.04653      9.83594   #   C17   0.00292262   0.25638381   0.32937900
   36 1     1      0.00000     -0.47646      6.15448     11.22787   #   C18   0.00291549   0.25637673   0.37599121
   37 1     1      0.00000      0.42617      4.91433      7.75501   #   C19   0.02680912   0.20927823   0.25969452
   38 1     1      0.00000      0.53885      6.06346      6.95317   #   C20   0.02929617   0.26807101   0.23284293
   39 1     1      0.00000      0.60772      5.95536      5.56125   #   C21   0.02930484   0.26807095   0.18623114
   40 1     1      0.00000      0.56432      4.69622      4.94049   #   C22   0.02679018   0.20930049   0.16544377
   41 1     1      0.00000      0.45113      3.54650      5.74086   #   C23   0.02428382   0.15048473   0.19224590
   42 1     1      0.00000      0.38339      3.65455      7.13279   #   C24   0.02431212   0.15048207   0.23885787
   43 1     1      0.00000      0.63751      4.52816      3.46181   #   C25   0.02679621   0.20671742   0.11592675
   44 1     1      0.00000      0.14180      5.41665     13.52738   #   C26   0.02681810   0.21190051   0.45299562
   45 1     1      0.00000      0.75468      6.83150      0.97601   #   C27   0.02680672   0.32787509   0.03268380
   46 1     1      0.00000      0.76059      1.95374      1.08216   #   C28   0.02680756   0.09074206   0.03623859
   47 1     3      0.00000     12.55696      4.38469      0.85855   #    N1   0.41313566   0.20956677   0.02875047
   48 1     3      0.00000      4.21852      4.40064      1.19950   #    N2   0.14047759   0.20905565   0.04016814
   49 1     4      0.00000      1.22793      5.47554     14.07833   #    O1   0.06329584   0.21268205   0.47144546
   50 1     4      0.00000      1.77279      4.47434      3.02025   #    O2   0.06327890   0.20576997   0.10113989
   51 1     4      0.00000      1.86739      6.33432      1.01294   #    O3   0.06328690   0.30360633   0.03392060
   52 1     4      0.00000      1.86928      2.45601      1.15461   #    O4   0.06328782   0.11484569   0.03866472
   53 1     4      0.00000     14.90620      6.32923      0.90355   #    O5   0.49032541   0.30377142   0.03025755
   54 1     4      0.00000     14.81160      4.46927      2.91086   #    O6   0.49031741   0.20593584   0.09747681
   55 1     4      0.00000     14.26674      5.47046     13.96893   #    O7   0.49033436   0.21284790   0.46778185
   56 1     4      0.00000     14.90809      2.45093      1.04521   #    O8   0.49032633   0.11501154   0.03500114
   57 1     5      0.00000     13.81849      5.54882     15.88805   #   Zn1   0.47874163   0.20941754   0.53204794
   58 1     5      0.00000      1.48509      5.55553     16.03217   #   Zn2   0.07487162   0.20919958   0.53687433
   59 1     2      0.00000      8.28369      6.62626     29.06272   #    H1   0.31867557   0.21205210   0.97323212
   60 1     2      0.00000      8.66674      5.60893     17.17219   #    H2   0.31201613   0.20749440   0.57505026
   61 1     2      0.00000      5.90089      6.65509     29.67896   #    H3   0.24159712   0.21112850   0.99386832
   62 1     2      0.00000      6.28394      5.63775     17.78843   #    H4   0.23493771   0.20657041   0.59568652
   63 1     2      0.00000     13.62638     10.69957     16.63748   #    H6   0.47403684   0.45657422   0.55714429
   64 1     2      0.00000      1.83486      8.57185     15.21019   #    H8   0.08523402   0.35868925   0.50934835
   65 1     2      0.00000      2.21719     11.86956     29.67843   #    H9   0.12128895   0.46420447   0.99385080
   66 1     2      0.00000      1.84858      2.54079     15.21019   #   H10   0.08523402   0.06598308   0.50934831
   67 1     2      0.00000      0.78853      4.67959     26.98531   #   H11   0.06960951   0.12540406   0.90366539
   68 1     2      0.00000      0.91783      4.49871     24.55461   #   H12   0.06992112   0.12578675   0.82226768
   69 1     2      0.00000     13.55878      7.90892     24.16094   #   H13   0.48372069   0.29277885   0.80908487
   70 1     2      0.00000     13.44931      8.10621     26.59091   #   H14   0.48405891   0.29319484   0.89045809
   71 1     2      0.00000     -0.14401      8.20637     22.33439   #   H15   0.03183339   0.31409952   0.74791862
   72 1     2      0.00000     -0.03753      8.01908     19.90350   #   H16   0.03139663   0.31417208   0.66651451
   73 1     2      0.00000     -0.32458      3.72140     20.22295   #   H17   0.02218506   0.10438843   0.67721219
   74 1     2      0.00000     -0.45664      3.91147     22.65281   #   H18   0.02178262   0.10445467   0.75858147
   75 1     1      0.00000     10.69648      5.53149     15.51671   #    C1   0.37585036   0.20997588   0.51961299
   76 1     1      0.00000      9.29895      5.51561     15.17710   #    C2   0.32951287   0.21048505   0.50824018
   77 1     1      0.00000      8.36794      5.56018     16.12994   #    C3   0.30054506   0.20905676   0.54014828
   78 1     1      0.00000      6.93565      5.54428     15.79017   #    C4   0.25306819   0.20956604   0.52877034
   79 1     1      0.00000      6.00464      5.58885     16.74301   #    C5   0.22410042   0.20813762   0.56067840
   80 1     1      0.00000      4.60711      5.57296     16.40340   #    C6   0.17776289   0.20864668   0.54930562
   81 1     1      0.00000      0.03066      1.62426     15.96012   #    C7   0.02680873   0.01867465   0.53446134
   82 1     1      0.00000     -0.63262     10.70184     16.22491   #    C8   0.00617886   0.45823971   0.54332869
   83 1     1      0.00000      0.01280      9.48010     15.96012   #    C9   0.02680871   0.39994277   0.53446135
   84 1     1      0.00000      1.31230      9.49573     15.42465   #   C10   0.06852633   0.40271969   0.51652982
   85 1     1      0.00000      1.95231     10.70772     15.15980   #   C11   0.08916018   0.46253958   0.50766074
   86 1     1      0.00000      1.33023      1.61454     15.42464   #   C12   0.06852633   0.02022116   0.51652979
   87 1     1      0.00000     -0.52086      6.40814     26.97974   #   C13   0.02682728   0.20931692   0.90347892
   88 1     1      0.00000      0.24102      5.39097     26.37963   #   C14   0.05074888   0.16221242   0.88338283
   89 1     1      0.00000      0.30894      5.28236     24.98776   #   C15   0.05072609   0.16218709   0.83677263
   90 1     1      0.00000     -0.38237      6.18887     24.16533   #   C16   0.02681956   0.20928286   0.80923173
   91 1     1      0.00000     -1.14358      7.20609     24.76697   #   C17   0.00292262   0.25638381   0.82937900
   92 1     1      0.00000     -1.21241      7.31404     26.15890   #   C18   0.00291549   0.25637673   0.87599121
   93 1     1      0.00000     -0.30978      6.07389     22.68604   #   C19   0.02680912   0.20927823   0.75969452
   94 1     1      0.00000     -0.19710      7.22302     21.88420   #   C20   0.02929617   0.26807101   0.73284293
   95 1     1      0.00000     -0.12823      7.11492     20.49228   #   C21   0.02930484   0.26807095   0.68623114
   96 1     1      0.00000     -0.17163      5.85577     19.87152   #   C22   0.02679018   0.20930049   0.66544377
   97 1     1      0.00000     -0.28482      4.70606     20.67189   #   C23   0.02428382   0.15048473   0.69224590
   98 1     1      0.00000     -0.35256      4.81410     22.06382   #   C24   0.02431212   0.15048207   0.73885787
   99 1     1      0.00000     -0.09844      5.68771     18.39284   #   C25   0.02679621   0.20671742   0.61592675
  100 1     1      0.00000     -0.59415      6.57621     28.45841   #   C26   0.02681810   0.21190051   0.95299562
  101 1     1      0.00000      0.01873      7.99106     15.90704   #   C27   0.02680672   0.32787509   0.53268380
  102 1     1      0.00000      0.02464      3.11329     16.01319   #   C28   0.02680756   0.09074206   0.53623859
  103 1     3      0.00000     11.82101      5.54425     15.78958   #    N1   0.41313566   0.20956677   0.52875047
  104 1     3      0.00000      3.48257      5.56020     16.13053   #    N2   0.14047759   0.20905565   0.54016814
  105 1     4      0.00000      0.49198      6.63510     29.00936   #    O1   0.06329584   0.21268205   0.97144546
  106 1     4      0.00000      1.03684      5.63390     17.95128   #    O2   0.06327890   0.20576997   0.60113989
  107 1     4      0.00000      1.13144      7.49388     15.94397   #    O3   0.06328690   0.30360633   0.53392060
  108 1     4      0.00000      1.13333      3.61556     16.08564   #    O4   0.06328782   0.11484569   0.53866472
  109 1     4      0.00000     14.17025      7.48879     15.83458   #    O5   0.49032541   0.30377142   0.53025755
  110 1     4      0.00000     14.07565      5.62882     17.84189   #    O6   0.49031741   0.20593584   0.59747681
  111 1     4      0.00000     13.53079      6.63002     28.89996   #    O7   0.49033436   0.21284790   0.96778185
  112 1     4      0.00000     14.17214      3.61048     15.97624   #    O8   0.49032633   0.11501154   0.53500114
  113 1     5      0.00000     14.53101     14.69152      0.95702   #   Zn1   0.47874163   0.70941754   0.03204794
  114 1     5      0.00000      2.19761     14.69822      1.10114   #   Zn2   0.07487162   0.70919958   0.03687433
  115 1     2      0.00000      8.99621     15.76896     14.13169   #    H1   0.31867557   0.71205210   0.47323212
  116 1     2      0.00000      9.37926     14.75162      2.24116   #    H2   0.31201613   0.70749440   0.07505026
  117 1     2      0.00000      6.61341     15.79779     14.74793   #    H3   0.24159712   0.71112850   0.49386832
  118 1     2      0.00000      6.99646     14.78044      2.85740   #    H4   0.23493771   0.70657041   0.09568652
  119 1     2      0.00000     14.33890     19.84226      1.70645   #    H6   0.47403684   0.95657422   0.05714429
  120 1     2      0.00000      2.54738     17.71454      0.27916   #    H8   0.08523402   0.85868925   0.00934835
  121 1     2      0.00000      2.92971     21.01225     14.74740   #    H9   0.12128895   0.96420447   0.49385080
  122 1     2      0.00000      2.56110     11.68348      0.27916   #   H10   0.08523402   0.56598308   0.00934831
  123 1     2      0.00000      1.50105     13.82229     12.05428   #   H11   0.06960951   0.62540406   0.40366539
  124 1     2      0.00000      1.63035     13.64140      9.62358   #   H12   0.06992112   0.62578675   0.32226768
  125 1     2      0.00000     14.27130     17.05162      9.22991   #   H13   0.48372069   0.79277885   0.30908487
  126 1     2      0.00000     14.16183     17.24890     11.65988   #   H14   0.48405891   0.79319484   0.39045809
  127 1     2      0.00000      0.56851     17.34907      7.40336   #   H15   0.03183339   0.81409952   0.24791862
  128 1     2      0.00000      0.67499     17.16178      4.97247   #   H16   0.03139663   0.81417208   0.16651451
  129 1     2      0.00000      0.38794     12.86410      5.29192   #   H17   0.02218506   0.60438843   0.17721219
  130 1     2      0.00000      0.25588     13.05417      7.72178   #   H18   0.02178262   0.60445467   0.25858147
  131 1     1      0.00000     11.40900     14.67418      0.58568   #    C1   0.37585036   0.70997588   0.01961299
  132 1     1      0.00000     10.01147     14.65830      0.24607   #    C2   0.32951287   0.71048505   0.00824018
  133 1     1      0.00000      9.08046     14.70287      1.19891   #    C3   0.30054506   0.70905676   0.04014828
  134 1     1      0.00000      7.64817     14.68698      0.85914   #    C4   0.25306819   0.70956604   0.02877034
  135 1     1      0.00000      6.71716     14.73154      1.81198   #    C5   0.22410042   0.70813762   0.06067840
  136 1     1      0.00000      5.31963     14.71566      1.47237   #    C6   0.17776289   0.70864668   0.04930562
  137 1     1      0.00000      0.74318     10.76695      1.02909   #    C7   0.02680873   0.51867465   0.03446134
  138 1     1      0.00000      0.07990     19.84454      1.29388   #    C8   0.00617886   0.95823971   0.04332869
  139 1     1      0.00000      0.72532     18.62279      1.02909   #    C9   0.02680871   0.89994277   0.03446135
  140 1     1      0.00000      2.02482     18.63842      0.49361   #   C10   0.06852633   0.90271969   0.01652982
  141 1     1      0.00000      2.66483     19.85041      0.22877   #   C11   0.08916018   0.96253958   0.00766074
  142 1     1      0.00000      2.04275     10.75723      0.49361   #   C12   0.06852633   0.52022116   0.01652979
  143 1     1      0.00000      0.19166     15.55084     12.04871   #   C13   0.02682728   0.70931692   0.40347892
  144 1     1      0.00000      0.95354     14.53367     11.44860   #   C14   0.05074888   0.66221242   0.38338283
  145 1     1      0.00000      1.02146     14.42505     10.05672   #   C15   0.05072609   0.66218709   0.33677263
  146 1     1      0.00000      0.33015     15.33156      9.23430   #   C16   0.02681956   0.70928286   0.30923173
  147 1     1      0.00000     -0.43106     16.34878      9.83594   #   C17   0.00292262   0.75638381   0.32937900
  148 1     1      0.00000     -0.49989     16.45673     11.22787   #   C18   0.00291549   0.75637673   0.37599121
  149 1     1      0.00000      0.40274     15.21659      7.75501   #   C19   0.02680912   0.70927823   0.25969452
  150 1     1      0.00000      0.51542     16.36571      6.95317   #   C20   0.02929617   0.76807101   0.23284293
  151 1     1      0.00000      0.58429     16.25761      5.56125   #   C21   0.02930484   0.76807095   0.18623114
  152 1     1      0.00000      0.54089     14.99847      4.94049   #   C22   0.02679018   0.70930049   0.16544377
  153 1     1      0.00000      0.42770     13.84875      5.74086   #   C23   0.02428382   0.65048473   0.19224590
  154 1     1      0.00000      0.35996     13.95680      7.13279   #   C24   0.02431212   0.65048207   0.23885787
  155 1     1      0.00000      0.61408     14.83041      3.46181   #   C25   0.02679621   0.70671742   0.11592675
  156 1     1      0.00000      0.11837     15.71890     13.52738   #   C26   0.02681810   0.71190051   0.45299562
  157 1     1      0.00000      0.73125     17.13375      0.97601   #   C27   0.02680672   0.82787509   0.03268380
  158 1     1      0.00000      0.73716     12.25599      1.08216   #   C28   0.02680756   0.59074206   0.03623859
  159 1     3      0.00000     12.53353     14.68694      0.85855   #    N1   0.41313566   0.70956677   0.02875047
  160 1     3      0.00000      4.19509     14.70289      1.19950   #    N2   0.14047759   0.70905565   0.04016814
  161 1     4      0.00000      1.20450     15.77779     14.07833   #    O1   0.06329584   0.71268205   0.47144546
  162 1     4      0.00000      1.74936     14.77659      3.02025   #    O2   0.06327890   0.70576997   0.10113989
  163 1     4      0.00000      1.84396     16.63657      1.01294   #    O3   0.06328690   0.80360633   0.03392060
  164 1     4      0.00000      1.84585     12.75826      1.15461   #    O4   0.06328782   0.61484569   0.03866472
  165 1     4      0.00000     14.88277     16.63148      0.90355   #    O5   0.49032541   0.80377142   0.03025755
  166 1     4      0.00000     14.78817     14.77152      2.91086   #    O6   0.49031741   0.70593584   0.09747681
  167 1     4      0.00000     14.24331     15.77272     13.96893   #    O7   0.49033436   0.71284790   0.46778185
  168 1     4      0.00000     14.88466     12.75318      1.04521   #    O8   0.49032633   0.61501154   0.03500114
  169 1     5      0.00000     13.79506     15.85107     15.88805   #   Zn1   0.47874163   0.70941754   0.53204794
  170 1     5      0.00000      1.46166     15.85778     16.03217   #   Zn2   0.07487162   0.70919958   0.53687433
  171 1     2      0.00000      8.26026     16.92852     29.06272   #    H1   0.31867557   0.71205210   0.97323212
  172 1     2      0.00000      8.64331     15.91118     17.17219   #    H2   0.31201613   0.70749440   0.57505026
  173 1     2      0.00000      5.87746     16.95734     29.67896   #    H3   0.24159712   0.71112850   0.99386832
  174 1     2      0.00000      6.26051     15.94000     17.78843   #    H4   0.23493771   0.70657041   0.59568652
  175 1     2      0.00000     13.60295     21.00182     16.63748   #    H6   0.47403684   0.95657422   0.55714429
  176 1     2      0.00000      1.81143     18.87410     15.21019   #    H8   0.08523402   0.85868925   0.50934835
  177 1     2      0.00000      2.19376     22.17181     29.67843   #    H9   0.12128895   0.96420447   0.99385080
  178 1     2      0.00000      1.82515     12.84304     15.21019   #   H10   0.08523402   0.56598308   0.50934831
  179 1     2      0.00000      0.76510     14.98184     26.98531   #   H11   0.06960951   0.62540406   0.90366539
  180 1     2      0.00000      0.89440     14.80096     24.55461   #   H12   0.06992112   0.62578675   0.82226768
  181 1     2      0.00000     13.53535     18.21117     24.16094   #   H13   0.48372069   0.79277885   0.80908487
  182 1     2      0.00000     13.42587     18.40846     26.59091   #   H14   0.48405891   0.79319484   0.89045809
  183 1     2      0.00000     -0.16745     18.50862     22.33439   #   H15   0.03183339   0.81409952   0.74791862
  184 1     2      0.00000     -0.06096     18.32133     19.90350   #   H16   0.03139663   0.81417208   0.66651451
  185 1     2      0.00000     -0.34802     14.02365     20.22295   #   H17   0.02218506   0.60438843   0.67721219
  186 1     2      0.00000     -0.48007     14.21372     22.65281   #   H18   0.02178262   0.60445467   0.75858147
  187 1     1      0.00000     10.67305     15.83374     15.51671   #    C1   0.37585036   0.70997588   0.51961299
  188 1     1      0.00000      9.27552     15.81786     15.17710   #    C2   0.32951287   0.71048505   0.50824018
  189 1     1      0.00000      8.34451     15.86243     16.12994   #    C3   0.30054506   0.70905676   0.54014828
  190 1     1      0.00000      6.91221     15.84653     15.79017   #    C4   0.25306819   0.70956604   0.52877034
  191 1     1      0.00000      5.98120     15.89110     16.74301   #    C5   0.22410042   0.70813762   0.56067840
  192 1     1      0.00000      4.58368     15.87521     16.40340   #    C6   0.17776289   0.70864668   0.54930562
  193 1     1      0.00000      0.00723     11.92651     15.96012   #    C7   0.02680873   0.51867465   0.53446134
  194 1     1      0.00000     -0.65605     21.00409     16.22491   #    C8   0.00617886   0.95823971   0.54332869
  195 1     1      0.00000     -0.01064     19.78235     15.96012   #    C9   0.02680871   0.89994277   0.53446135
  196 1     1      0.00000      1.28887     19.79798     15.42465   #   C10   0.06852633   0.90271969   0.51652982
  197 1     1      0.00000      1.92888     21.00997     15.15980   #   C11   0.08916018   0.96253958   0.50766074
  198 1     1      0.00000      1.30680     11.91679     15.42464   #   C12   0.06852633   0.52022116   0.51652979
  199 1     1      0.00000     -0.54429     16.71039     26.97974   #   C13   0.02682728   0.70931692   0.90347892
  200 1     1      0.00000      0.21759     15.69322     26.37963   #   C14   0.05074888   0.66221242   0.88338283
  201 1     1      0.00000      0.28550     15.58461     24.98776   #   C15   0.05072609   0.66218709   0.83677263
  202 1     1      0.00000     -0.40581     16.49112     24.16533   #   C16   0.02681956   0.70928286   0.80923173
  203 1     1      0.00000     -1.16701     17.50834     24.76697   #   C17   0.00292262   0.75638381   0.82937900
  204 1     1      0.00000     -1.23584     17.61629     26.15890   #   C18   0.00291549   0.75637673   0.87599121
  205 1     1      0.00000     -0.33321     16.37614     22.68604   #   C19   0.02680912   0.70927823   0.75969452
  206 1     1      0.00000     -0.22054     17.52527     21.88420   #   C20   0.02929617   0.76807101   0.73284293
  207 1     1      0.00000     -0.15166     17.41717     20.49228   #   C21   0.02930484   0.76807095   0.68623114
  208 1     1      0.00000     -0.19506     16.15802     19.87152   #   C22   0.02679018   0.70930049   0.66544377
  209 1     1      0.00000     -0.30825     15.00831     20.67189   #   C23   0.02428382   0.65048473   0.69224590
  210 1     1      0.00000     -0.37599     15.11635     22.06382   #   C24   0.02431212   0.65048207   0.73885787
  211 1     1      0.00000     -0.12187     15.98996     18.39284   #   C25   0.02679621   0.70671742   0.61592675
  212 1     1      0.00000     -0.61758     16.87846     28.45841   #   C26   0.02681810   0.71190051   0.95299562
  213 1     1      0.00000     -0.00470     18.29331     15.90704   #   C27   0.02680672   0.82787509   0.53268380
  214 1     1      0.00000      0.00120     13.41554     16.01319   #   C28   0.02680756   0.59074206   0.53623859
  215 1     3      0.00000     11.79758     15.84650     15.78958   #    N1   0.41313566   0.70956677   0.52875047
  216 1     3      0.00000      3.45914     15.86245     16.13053   #    N2   0.14047759   0.70905565   0.54016814
  217 1     4      0.00000      0.46855     16.93735     29.00936   #    O1   0.06329584   0.71268205   0.97144546
  218 1     4      0.00000      1.01341     15.93615     17.95128   #    O2   0.06327890   0.70576997   0.60113989
  219 1     4      0.00000      1.10801     17.79613     15.94397   #    O3   0.06328690   0.80360633   0.53392060
  220 1     4      0.00000      1.10990     13.91781     16.08564   #    O4   0.06328782   0.61484569   0.53866472
  221 1     4      0.00000     14.14682     17.79104     15.83458   #    O5   0.49032541   0.80377142   0.53025755
  222 1     4      0.00000     14.05222     15.93107     17.84189   #    O6   0.49031741   0.70593584   0.59747681
  223 1     4      0.00000     13.50736     16.93227     28.89996   #    O7   0.49033436   0.71284790   0.96778185
  224 1     4      0.00000     14.14871     13.91274     15.97624   #    O8   0.49032633   0.61501154   0.53500114
  225 1     5      0.00000     29.81469      4.38927      0.95702   #   Zn1   0.97874163   0.20941754   0.03204794
  226 1     5      0.00000     17.48129      4.39597      1.10114   #   Zn2   0.57487162   0.20919958   0.03687433
  227 1     2      0.00000     24.27989      5.46671     14.13169   #    H1   0.81867557   0.21205210   0.47323212
  228 1     2      0.00000     24.66294      4.44937      2.24116   #    H2   0.81201613   0.20749440   0.07505026
  229 1     2      0.00000     21.89709      5.49553     14.74793   #    H3   0.74159712   0.21112850   0.49386832
  230 1     2      0.00000     22.28014      4.47819      2.85740   #    H4   0.73493771   0.20657041   0.09568652
  231 1     2      0.00000     29.62258      9.54001      1.70645   #    H6   0.97403684   0.45657422   0.05714429
  232 1     2      0.00000     17.83106      7.41229      0.27916   #    H8   0.58523402   0.35868925   0.00934835
  233 1     2      0.00000     18.21339     10.71000     14.74740   #    H9   0.62128895   0.46420447   0.49385080
  234 1     2      0.00000     17.84478      1.38123      0.27916   #   H10   0.58523402   0.06598308   0.00934831