Created by Ryther's code on 2025-07-25 17:28:32.955312, modified by xyan11@uic.edu. 

    408 atoms
    488 bonds
    920 angles
    928 dihedrals
    176 impropers

    8 atom types
    13 bond types
    29 angle types
    7 dihedral types
    2 improper types

0.00000000 28.94912415 xlo xhi
0.00000000 25.83728334 ylo yhi
0.00000000 21.15572182 zlo zhi
0.84495594 -0.03415819 1.87526013 xy xz yz 

Masses 

    1     32.065  #   S
    2    15.9994  #   O
    3    15.9994  #   O
    4    14.0067  #   N
    5    14.0067  #   N
    6    1.00794  #   H
    7      65.38  #  Zn
    8    12.0107  #   C

Pair Coeffs

    1       0.27400      3.59478  #  S_3 S_3
    2       0.06000      3.11815  #  O_2_M O_2_M
    3       0.06000      3.11815  #  O_3_M O_3_M
    4       0.06900      3.26069  #  N_R N_R
    5       0.06900      3.26069  #  N_2 N_2
    6       0.04400      2.57113  #  H_ H_
    7       0.12400      2.46155  #  Zn3+2 Zn3+2
    8       0.10500      3.43085  #  C_R C_R

Bond Coeffs

    1     131.87166      1.96411  #  O_2_M Zn3+2 bond order=0.5
    2     169.60151      1.86783  #  N_2 Zn3+2 bond order=1.0
    3     126.84659      1.98971  #  O_3_M Zn3+2 bond order=0.5
    4      83.70832      1.54605  #  H_ Zn3+2 bond order=1.0
    5     357.44038      1.08142  #  C_R H_ bond order=1.0
    6     559.94651      0.99025  #  H_ O_3_M bond order=1.0
    7     931.53598      1.20133  #  C_R N_2 bond order=3.0
    8     462.65505      1.37926  #  C_R C_R bond order=1.5
    9     301.29678      1.78592  #  C_R S_3 bond order=1.0
    10    391.66951      1.45800  #  C_R C_R bond order=1.0
    11    663.66675      1.34507  #  C_R N_R bond order=1.5
    12    714.49531      1.26901  #  C_R O_2_M bond order=1.5
    13    677.96894      1.29140  #  C_R O_3_M bond order=1.5

Angle Coeffs

    1  fourier                168.93786      0.34375      0.37500      0.28125  #  N_2 Zn3+2 O_2_M
    2  fourier                141.94394      0.34375      0.37500      0.28125  #  O_2_M Zn3+2 O_2_M
    3  fourier                139.19354      0.34375      0.37500      0.28125  #  O_2_M Zn3+2 O_3_M
    4  fourier                 59.97536      0.34375      0.37500      0.28125  #  H_ Zn3+2 O_2_M
    5  fourier                 58.51091      0.34375      0.37500      0.28125  #  H_ Zn3+2 O_3_M
    6  fourier                165.48270      0.34375      0.37500      0.28125  #  N_2 Zn3+2 O_3_M
    7  fourier                 27.89484      0.34375      0.37500      0.28125  #  H_ Zn3+2 H_
    8  fourier                 72.83028      0.34375      0.37500      0.28125  #  H_ Zn3+2 N_2
    9  cosine/periodic         61.24131            1            1  #  O_3_M H_ Zn3+2
    10 cosine/periodic        179.74893           -1            3  #  C_R C_R N_2
    11 cosine/periodic        101.95051           -1            3  #  C_R C_R S_3
    12 cosine/periodic        111.29751           -1            3  #  C_R C_R C_R
    13 cosine/periodic         57.28902           -1            3  #  C_R C_R H_
    14 cosine/periodic        102.18328           -1            3  #  C_R C_R C_R
    15 cosine/periodic        102.18328           -1            3  #  C_R C_R C_R
    16 cosine/periodic        140.82706           -1            3  #  C_R C_R N_R
    17 cosine/periodic        153.68727           -1            3  #  C_R C_R N_R
    18 cosine/periodic         79.78069           -1            3  #  H_ C_R N_R
    19 cosine/periodic        137.70227           -1            3  #  C_R C_R O_2_M
    20 cosine/periodic        206.74247           -1            3  #  O_2_M C_R O_2_M
    21 cosine/periodic        134.56278           -1            3  #  C_R C_R O_3_M
    22 cosine/periodic        201.34548           -1            3  #  O_2_M C_R O_3_M
    23 fourier                211.54307      0.25101      0.03669      0.25034  #  C_R S_3 C_R
    24 fourier                123.90958      0.36401      0.41847      0.28800  #  C_R N_2 Zn3+2
    25 cosine/periodic        120.00052           -1            3  #  C_R N_R C_R
    26 cosine/periodic         44.54794           -1            3  #  C_R O_2_M Zn3+2
    27 fourier                 50.82090      0.30023      0.26733      0.26675  #  H_ O_3_M Zn3+2
    28 fourier                118.37950      0.30023      0.26733      0.26675  #  C_R O_3_M Zn3+2
    29 fourier                203.65891      0.30023      0.26733      0.26675  #  C_R O_3_M H_

Dihedral Coeffs

    1      27.96100           -1            2  #  X C_R N_2 X bond order=3.0
    2       6.73711           -1            2  #  X C_R C_R X bond order=1.5
    3       1.22984           -1            2  #  X C_R S_3 X bond order=1.0
    4       1.25000           -1            2  #  X C_R C_R X bond order=1.0
    5       6.73711           -1            2  #  X C_R N_R X bond order=1.5
    6       6.73711           -1            2  #  X C_R O_2_M X bond order=1.5
    7       0.31957           -1            2  #  X C_R O_3_M X bond order=1.5

Improper Coeffs

    1       2.00000      1.00000     -1.00000      0.00000            1  #  C_R X X X O_2 present=False
    2      16.66667      1.00000     -1.00000      0.00000            1  #  C_R X X X O_2 present=True

Atoms # a, b, c, alpha, beta, gamma: 28.9491241474, 25.8510959320, 21.2386989506, 84.9402393207, 90.0921488174, 88.1269253033 $$$atoms$$$

    1 1     7      0.00000     14.13544      2.28983      6.29760   #   Zn1   0.48668061   0.06701985   0.29767813
    2 1     7      0.00000      2.59127      2.28979      6.29755   #   Zn2   0.08790634   0.06701840   0.29767602
    3 1     6      0.00000     10.08051     12.59880      5.44126   #    H1   0.33483037   0.46895341   0.25720039
    4 1     6      0.00000      7.49116     12.59880      5.44125   #    H2   0.24538569   0.46895353   0.25720007
    5 1     6      0.00000      1.81769      1.70348      6.53824   #    H3   0.06188428   0.04350027   0.30905294
    6 1     6      0.00000      3.59781     11.42826      7.03331   #    H4   0.11246688   0.41818735   0.33245424
    7 1     6      0.00000      3.95292      9.01492      7.18027   #    H5   0.12748282   0.32427763   0.33940072
    8 1     6      0.00000      3.11854      6.72562      6.92310   #    H6   0.10120662   0.23655533   0.32724477
    9 1     6      0.00000      2.72729      3.25279      6.82907   #    H7   0.09159991   0.10246658   0.32280000
   10 1     6      0.00000     13.55077      6.06946      5.56160   #    H8   0.46209958   0.21583070   0.26288883
   11 1     6      0.00000     13.19527      8.48321      5.41450   #    H9   0.44706984   0.30975629   0.25593538
   12 1     6      0.00000     14.02990     10.77294      5.67175   #   H10   0.47335434   0.39749516   0.26809535
   13 1     6      0.00000     13.45022      1.74515      2.17973   #   H11   0.46298430   0.06006573   0.10303245
   14 1     6      0.00000      3.27748      2.83459     10.41569   #   H12   0.11163700   0.07397569   0.49233449
   15 1     8      0.00000     11.00601      2.05097      6.21914   #    C1   0.37883730   0.05804392   0.29396947
   16 1     8      0.00000      9.60425      1.75452      6.12187   #    C2   0.33073534   0.04690390   0.28937181
   17 1     8      0.00000      9.06332      0.53944      5.72320   #    C3   0.31336030   0.00124374   0.27052708
   18 1     8      0.00000      7.66339      0.53944      5.72319   #    C4   0.26500225   0.00124379   0.27052693
   19 1     8      0.00000      7.12246      1.75452      6.12186   #    C5   0.24500625   0.04690396   0.28937158
   20 1     8      0.00000      5.72070      2.05097      6.21913   #    C6   0.19626483   0.05804401   0.29396935
   21 1     8      0.00000      1.54850     11.28077      6.34103   #    C7   0.04173547   0.41485382   0.29973121
   22 1     8      0.00000      2.78496     10.76504      6.76541   #    C8   0.08509555   0.39343731   0.31979109
   23 1     8      0.00000      2.98968      9.38549      6.85001   #    C9   0.09373904   0.33975331   0.32378981
   24 1     8      0.00000      1.96084      8.49568      6.51149   #   C10   0.05915195   0.30647568   0.30778862
   25 1     8      0.00000      2.15939      7.10855      6.59408   #   C11   0.06759019   0.25250499   0.31169250
   26 1     8      0.00000      1.12625      6.21751      6.25412   #   C12   0.03285590   0.21918466   0.29562325
   27 1     8      0.00000     14.36340      6.73319      5.82942   #   C13   0.48946276   0.24060075   0.27554799
   28 1     8      0.00000     14.15852      8.11266      5.74476   #   C14   0.48081376   0.29428172   0.27154659
   29 1     8      0.00000      0.71282      9.00238      6.08329   #   C15   0.01540181   0.32755583   0.28754822
   30 1     8      0.00000      0.51444     10.38948      6.00076   #   C16   0.00696954   0.38152498   0.28364712
   31 1     8      0.00000      1.12613      1.94248      2.38503   #   C17   0.03707775   0.06699886   0.11273698
   32 1     8      0.00000     14.40505      1.77957      1.67161   #   C18   0.49584919   0.06314104   0.07901454
   33 1     8      0.00000      1.12615      2.63716     10.21012   #   C19   0.03751361   0.06703963   0.48261745
   34 1     8      0.00000      2.33969      1.86255      0.34607   #   C20   0.07877070   0.07090036   0.01635822
   35 1     8      0.00000      1.12611      2.45256      8.73160   #   C21   0.03749044   0.06496762   0.41272999
   36 1     8      0.00000      1.12607      2.12708      3.86355   #   C22   0.03709761   0.06907129   0.18262421
   37 1     8      0.00000      1.12614      4.72796      6.21746   #   C23   0.03452899   0.16165939   0.29389009
   38 1     8      0.00000      1.54852     12.77031      6.37769   #   C24   0.04005903   0.47237889   0.30146416
   39 1     1      0.00000      8.36335      2.83253      6.47557   #    S1   0.28670814   0.08741347   0.30609073
   40 1     5      0.00000     12.13553      2.28986      6.29752   #    N1   0.41759693   0.06702123   0.29767449
   41 1     5      0.00000      4.59118      2.28986      6.29752   #    N2   0.15698990   0.06702127   0.29767444
   42 1     4      0.00000     14.44393      1.66268      0.31853   #    N3   0.49711341   0.06325927   0.01505645
   43 1     4      0.00000      2.30073      1.97942      1.69910   #    N4   0.07750376   0.07078179   0.08031413
   44 1     2      0.00000      2.23812      2.18896      4.35973   #    O1   0.07551897   0.06976400   0.20607824
   45 1     2      0.00000      2.23816      2.39064      8.23538   #    O2   0.07589706   0.06427341   0.38927419
   46 1     3      0.00000      2.23817      4.22805      6.20519   #    O3   0.07350515   0.14235324   0.29331012
   47 1     2      0.00000      2.66059     13.27019      6.38992   #    O4   0.07791086   0.49168417   0.30204226
   48 1     2      0.00000     14.48860      4.22808      6.20522   #    O5   0.49667606   0.14235408   0.29331190
   49 1     2      0.00000     14.48859      2.39068      8.23541   #    O6   0.49906796   0.06427487   0.38927592
   50 1     2      0.00000     14.48854      2.18900      4.35975   #    O7   0.49868987   0.06976544   0.20607921
   51 1     2      0.00000      0.43645     13.27023      6.38994   #    O8   0.00108176   0.49168561   0.30204328
   52 1     7      0.00000     14.11836      3.22746     16.87546   #   Zn1   0.48668061   0.06701985   0.79767813
   53 1     7      0.00000      2.57419      3.22742     16.87541   #   Zn2   0.08790634   0.06701840   0.79767602
   54 1     6      0.00000     10.06343     13.53643     16.01912   #    H1   0.33483037   0.46895341   0.75720039
   55 1     6      0.00000      7.47408     13.53643     16.01911   #    H2   0.24538569   0.46895353   0.75720007
   56 1     6      0.00000      1.80062      2.64111     17.11610   #    H3   0.06188428   0.04350027   0.80905294
   57 1     6      0.00000      3.58073     12.36589     17.61117   #    H4   0.11246688   0.41818735   0.83245424
   58 1     6      0.00000      3.93584      9.95255     17.75813   #    H5   0.12748282   0.32427763   0.83940072
   59 1     6      0.00000      3.10146      7.66325     17.50096   #    H6   0.10120662   0.23655533   0.82724477
   60 1     6      0.00000      2.71021      4.19042     17.40693   #    H7   0.09159991   0.10246658   0.82280000
   61 1     6      0.00000     13.53369      7.00709     16.13946   #    H8   0.46209958   0.21583070   0.76288883
   62 1     6      0.00000     13.17819      9.42084     15.99236   #    H9   0.44706984   0.30975629   0.75593538
   63 1     6      0.00000     14.01282     11.71057     16.24961   #   H10   0.47335434   0.39749516   0.76809535
   64 1     6      0.00000     13.43314      2.68278     12.75759   #   H11   0.46298430   0.06006573   0.60303245
   65 1     6      0.00000      3.26040      3.77222     20.99355   #   H12   0.11163700   0.07397569   0.99233449
   66 1     8      0.00000     10.98893      2.98860     16.79700   #    C1   0.37883730   0.05804392   0.79396947
   67 1     8      0.00000      9.58717      2.69215     16.69973   #    C2   0.33073534   0.04690390   0.78937181
   68 1     8      0.00000      9.04624      1.47707     16.30106   #    C3   0.31336030   0.00124374   0.77052708
   69 1     8      0.00000      7.64631      1.47707     16.30105   #    C4   0.26500225   0.00124379   0.77052693
   70 1     8      0.00000      7.10538      2.69215     16.69973   #    C5   0.24500625   0.04690396   0.78937158
   71 1     8      0.00000      5.70362      2.98860     16.79699   #    C6   0.19626483   0.05804401   0.79396935
   72 1     8      0.00000      1.53142     12.21840     16.91889   #    C7   0.04173547   0.41485382   0.79973121
   73 1     8      0.00000      2.76788     11.70267     17.34327   #    C8   0.08509555   0.39343731   0.81979109
   74 1     8      0.00000      2.97260     10.32312     17.42787   #    C9   0.09373904   0.33975331   0.82378981
   75 1     8      0.00000      1.94376      9.43331     17.08935   #   C10   0.05915195   0.30647568   0.80778862
   76 1     8      0.00000      2.14231      8.04618     17.17194   #   C11   0.06759019   0.25250499   0.81169250
   77 1     8      0.00000      1.10917      7.15514     16.83198   #   C12   0.03285590   0.21918466   0.79562325
   78 1     8      0.00000     14.34632      7.67082     16.40728   #   C13   0.48946276   0.24060075   0.77554799
   79 1     8      0.00000     14.14144      9.05029     16.32262   #   C14   0.48081376   0.29428172   0.77154659
   80 1     8      0.00000      0.69574      9.94001     16.66115   #   C15   0.01540181   0.32755583   0.78754822
   81 1     8      0.00000      0.49737     11.32711     16.57862   #   C16   0.00696954   0.38152498   0.78364712
   82 1     8      0.00000      1.10905      2.88011     12.96289   #   C17   0.03707775   0.06699886   0.61273698
   83 1     8      0.00000     14.38797      2.71720     12.24947   #   C18   0.49584919   0.06314104   0.57901454
   84 1     8      0.00000      1.10907      3.57479     20.78798   #   C19   0.03751361   0.06703963   0.98261745
   85 1     8      0.00000      2.32261      2.80018     10.92393   #   C20   0.07877070   0.07090036   0.51635822
   86 1     8      0.00000      1.10903      3.39019     19.30946   #   C21   0.03749044   0.06496762   0.91272999
   87 1     8      0.00000      1.10899      3.06471     14.44141   #   C22   0.03709761   0.06907129   0.68262421
   88 1     8      0.00000      1.10906      5.66559     16.79532   #   C23   0.03452899   0.16165939   0.79389009
   89 1     8      0.00000      1.53144     13.70794     16.95555   #   C24   0.04005903   0.47237889   0.80146416
   90 1     1      0.00000      8.34628      3.77016     17.05343   #    S1   0.28670814   0.08741347   0.80609073
   91 1     5      0.00000     12.11845      3.22749     16.87538   #    N1   0.41759693   0.06702123   0.79767449
   92 1     5      0.00000      4.57410      3.22749     16.87538   #    N2   0.15698990   0.06702127   0.79767444
   93 1     4      0.00000     14.42686      2.60031     10.89639   #    N3   0.49711341   0.06325927   0.51505645
   94 1     4      0.00000      2.28365      2.91705     12.27696   #    N4   0.07750376   0.07078179   0.58031413
   95 1     2      0.00000      2.22104      3.12659     14.93759   #    O1   0.07551897   0.06976400   0.70607824
   96 1     2      0.00000      2.22109      3.32827     18.81324   #    O2   0.07589706   0.06427341   0.88927419
   97 1     3      0.00000      2.22109      5.16568     16.78305   #    O3   0.07350515   0.14235324   0.79331012
   98 1     2      0.00000      2.64351     14.20782     16.96778   #    O4   0.07791086   0.49168417   0.80204226
   99 1     2      0.00000     14.47152      5.16571     16.78309   #    O5   0.49667606   0.14235408   0.79331190
  100 1     2      0.00000     14.47151      3.32831     18.81327   #    O6   0.49906796   0.06427487   0.88927592
  101 1     2      0.00000     14.47147      3.12663     14.93762   #    O7   0.49868987   0.06976544   0.70607921
  102 1     2      0.00000      0.41937     14.20786     16.96780   #    O8   0.00108176   0.49168561   0.80204328
  103 1     7      0.00000     14.55792     15.20848      6.29760   #   Zn1   0.48668061   0.56701985   0.29767813
  104 1     7      0.00000      3.01375     15.20843      6.29755   #   Zn2   0.08790634   0.56701840   0.29767602
  105 1     6      0.00000     10.50298     25.51744      5.44126   #    H1   0.33483037   0.96895341   0.25720039
  106 1     6      0.00000      7.91364     25.51744      5.44125   #    H2   0.24538569   0.96895353   0.25720007
  107 1     6      0.00000      2.24017     14.62213      6.53824   #    H3   0.06188428   0.54350027   0.30905294
  108 1     6      0.00000      4.02029     24.34690      7.03331   #    H4   0.11246688   0.91818735   0.33245424
  109 1     6      0.00000      4.37540     21.93356      7.18027   #    H5   0.12748282   0.82427763   0.33940072
  110 1     6      0.00000      3.54102     19.64426      6.92310   #    H6   0.10120662   0.73655533   0.32724477
  111 1     6      0.00000      3.14977     16.17143      6.82907   #    H7   0.09159991   0.60246658   0.32280000
  112 1     6      0.00000     13.97324     18.98811      5.56160   #    H8   0.46209958   0.71583070   0.26288883
  113 1     6      0.00000     13.61775     21.40185      5.41450   #    H9   0.44706984   0.80975629   0.25593538
  114 1     6      0.00000     14.45238     23.69159      5.67175   #   H10   0.47335434   0.89749516   0.26809535
  115 1     6      0.00000     13.87270     14.66379      2.17973   #   H11   0.46298430   0.56006573   0.10303245
  116 1     6      0.00000      3.69996     15.75323     10.41569   #   H12   0.11163700   0.57397569   0.49233449
  117 1     8      0.00000     11.42849     14.96961      6.21914   #    C1   0.37883730   0.55804392   0.29396947
  118 1     8      0.00000     10.02672     14.67316      6.12187   #    C2   0.33073534   0.54690390   0.28937181
  119 1     8      0.00000      9.48579     13.45809      5.72320   #    C3   0.31336030   0.50124374   0.27052708
  120 1     8      0.00000      8.08587     13.45809      5.72319   #    C4   0.26500225   0.50124379   0.27052693
  121 1     8      0.00000      7.54494     14.67316      6.12186   #    C5   0.24500625   0.54690396   0.28937158
  122 1     8      0.00000      6.14318     14.96961      6.21913   #    C6   0.19626483   0.55804401   0.29396935
  123 1     8      0.00000      1.97098     24.19941      6.34103   #    C7   0.04173547   0.91485382   0.29973121
  124 1     8      0.00000      3.20743     23.68368      6.76541   #    C8   0.08509555   0.89343731   0.31979109
  125 1     8      0.00000      3.41216     22.30413      6.85001   #    C9   0.09373904   0.83975331   0.32378981
  126 1     8      0.00000      2.38332     21.41432      6.51149   #   C10   0.05915195   0.80647568   0.30778862
  127 1     8      0.00000      2.58186     20.02719      6.59408   #   C11   0.06759019   0.75250499   0.31169250
  128 1     8      0.00000      1.54873     19.13615      6.25412   #   C12   0.03285590   0.71918466   0.29562325
  129 1     8      0.00000     14.78588     19.65184      5.82942   #   C13   0.48946276   0.74060075   0.27554799
  130 1     8      0.00000     14.58099     21.03130      5.74476   #   C14   0.48081376   0.79428172   0.27154659
  131 1     8      0.00000      1.13530     21.92102      6.08329   #   C15   0.01540181   0.82755583   0.28754822
  132 1     8      0.00000      0.93692     23.30812      6.00076   #   C16   0.00696954   0.88152498   0.28364712
  133 1     8      0.00000      1.54861     14.86112      2.38503   #   C17   0.03707775   0.56699886   0.11273698
  134 1     8      0.00000     14.82753     14.69821      1.67161   #   C18   0.49584919   0.56314104   0.07901454
  135 1     8      0.00000      1.54862     15.55580     10.21012   #   C19   0.03751361   0.56703963   0.48261745
  136 1     8      0.00000      2.76217     14.78119      0.34607   #   C20   0.07877070   0.57090036   0.01635822
  137 1     8      0.00000      1.54859     15.37120      8.73160   #   C21   0.03749044   0.56496762   0.41272999
  138 1     8      0.00000      1.54855     15.04572      3.86355   #   C22   0.03709761   0.56907129   0.18262421
  139 1     8      0.00000      1.54862     17.64660      6.21746   #   C23   0.03452899   0.66165939   0.29389009
  140 1     8      0.00000      1.97099     25.68895      6.37769   #   C24   0.04005903   0.97237889   0.30146416
  141 1     1      0.00000      8.78583     15.75117      6.47557   #    S1   0.28670814   0.58741347   0.30609073
  142 1     5      0.00000     12.55801     15.20851      6.29752   #    N1   0.41759693   0.56702123   0.29767449
  143 1     5      0.00000      5.01366     15.20851      6.29752   #    N2   0.15698990   0.56702127   0.29767444
  144 1     4      0.00000     14.86641     14.58132      0.31853   #    N3   0.49711341   0.56325927   0.01505645
  145 1     4      0.00000      2.72321     14.89806      1.69910   #    N4   0.07750376   0.57078179   0.08031413
  146 1     2      0.00000      2.66059     15.10760      4.35973   #    O1   0.07551897   0.56976400   0.20607824
  147 1     2      0.00000      2.66064     15.30928      8.23538   #    O2   0.07589706   0.56427341   0.38927419
  148 1     3      0.00000      2.66065     17.14670      6.20519   #    O3   0.07350515   0.64235324   0.29331012
  149 1     2      0.00000      3.08306     26.18883      6.38992   #    O4   0.07791086   0.99168417   0.30204226
  150 1     2      0.00000     14.91108     17.14672      6.20522   #    O5   0.49667606   0.64235408   0.29331190
  151 1     2      0.00000     14.91107     15.30932      8.23541   #    O6   0.49906796   0.56427487   0.38927592
  152 1     2      0.00000     14.91102     15.10764      4.35975   #    O7   0.49868987   0.56976544   0.20607921
  153 1     2      0.00000      0.85893     26.18887      6.38994   #    O8   0.00108176   0.99168561   0.30204328
  154 1     7      0.00000     14.54084     16.14611     16.87546   #   Zn1   0.48668061   0.56701985   0.79767813
  155 1     7      0.00000      2.99667     16.14607     16.87541   #   Zn2   0.08790634   0.56701840   0.79767602
  156 1     6      0.00000     10.48590     26.45507     16.01912   #    H1   0.33483037   0.96895341   0.75720039
  157 1     6      0.00000      7.89656     26.45507     16.01911   #    H2   0.24538569   0.96895353   0.75720007
  158 1     6      0.00000      2.22309     15.55976     17.11610   #    H3   0.06188428   0.54350027   0.80905294
  159 1     6      0.00000      4.00321     25.28454     17.61117   #    H4   0.11246688   0.91818735   0.83245424
  160 1     6      0.00000      4.35832     22.87119     17.75813   #    H5   0.12748282   0.82427763   0.83940072
  161 1     6      0.00000      3.52394     20.58189     17.50096   #    H6   0.10120662   0.73655533   0.82724477
  162 1     6      0.00000      3.13269     17.10906     17.40693   #    H7   0.09159991   0.60246658   0.82280000
  163 1     6      0.00000     13.95616     19.92574     16.13946   #    H8   0.46209958   0.71583070   0.76288883
  164 1     6      0.00000     13.60067     22.33948     15.99236   #    H9   0.44706984   0.80975629   0.75593538
  165 1     6      0.00000     14.43530     24.62922     16.24961   #   H10   0.47335434   0.89749516   0.76809535
  166 1     6      0.00000     13.85562     15.60142     12.75759   #   H11   0.46298430   0.56006573   0.60303245
  167 1     6      0.00000      3.68288     16.69086     20.99355   #   H12   0.11163700   0.57397569   0.99233449
  168 1     8      0.00000     11.41141     15.90724     16.79700   #    C1   0.37883730   0.55804392   0.79396947
  169 1     8      0.00000     10.00964     15.61079     16.69973   #    C2   0.33073534   0.54690390   0.78937181
  170 1     8      0.00000      9.46872     14.39572     16.30106   #    C3   0.31336030   0.50124374   0.77052708
  171 1     8      0.00000      8.06879     14.39572     16.30105   #    C4   0.26500225   0.50124379   0.77052693
  172 1     8      0.00000      7.52786     15.61079     16.69973   #    C5   0.24500625   0.54690396   0.78937158
  173 1     8      0.00000      6.12610     15.90724     16.79699   #    C6   0.19626483   0.55804401   0.79396935
  174 1     8      0.00000      1.95390     25.13704     16.91889   #    C7   0.04173547   0.91485382   0.79973121
  175 1     8      0.00000      3.19035     24.62131     17.34327   #    C8   0.08509555   0.89343731   0.81979109
  176 1     8      0.00000      3.39508     23.24176     17.42787   #    C9   0.09373904   0.83975331   0.82378981
  177 1     8      0.00000      2.36624     22.35195     17.08935   #   C10   0.05915195   0.80647568   0.80778862
  178 1     8      0.00000      2.56478     20.96482     17.17194   #   C11   0.06759019   0.75250499   0.81169250
  179 1     8      0.00000      1.53165     20.07378     16.83198   #   C12   0.03285590   0.71918466   0.79562325
  180 1     8      0.00000     14.76880     20.58947     16.40728   #   C13   0.48946276   0.74060075   0.77554799
  181 1     8      0.00000     14.56392     21.96893     16.32262   #   C14   0.48081376   0.79428172   0.77154659
  182 1     8      0.00000      1.11822     22.85865     16.66115   #   C15   0.01540181   0.82755583   0.78754822
  183 1     8      0.00000      0.91984     24.24575     16.57862   #   C16   0.00696954   0.88152498   0.78364712
  184 1     8      0.00000      1.53153     15.79875     12.96289   #   C17   0.03707775   0.56699886   0.61273698
  185 1     8      0.00000     14.81045     15.63584     12.24947   #   C18   0.49584919   0.56314104   0.57901454
  186 1     8      0.00000      1.53155     16.49343     20.78798   #   C19   0.03751361   0.56703963   0.98261745
  187 1     8      0.00000      2.74509     15.71882     10.92393   #   C20   0.07877070   0.57090036   0.51635822
  188 1     8      0.00000      1.53151     16.30883     19.30946   #   C21   0.03749044   0.56496762   0.91272999
  189 1     8      0.00000      1.53147     15.98335     14.44141   #   C22   0.03709761   0.56907129   0.68262421
  190 1     8      0.00000      1.53154     18.58423     16.79532   #   C23   0.03452899   0.66165939   0.79389009
  191 1     8      0.00000      1.95391     26.62658     16.95555   #   C24   0.04005903   0.97237889   0.80146416
  192 1     1      0.00000      8.76875     16.68880     17.05343   #    S1   0.28670814   0.58741347   0.80609073
  193 1     5      0.00000     12.54093     16.14614     16.87538   #    N1   0.41759693   0.56702123   0.79767449
  194 1     5      0.00000      4.99658     16.14614     16.87538   #    N2   0.15698990   0.56702127   0.79767444
  195 1     4      0.00000     14.84933     15.51895     10.89639   #    N3   0.49711341   0.56325927   0.51505645
  196 1     4      0.00000      2.70613     15.83569     12.27696   #    N4   0.07750376   0.57078179   0.58031413
  197 1     2      0.00000      2.64352     16.04523     14.93759   #    O1   0.07551897   0.56976400   0.70607824
  198 1     2      0.00000      2.64356     16.24691     18.81324   #    O2   0.07589706   0.56427341   0.88927419
  199 1     3      0.00000      2.64357     18.08433     16.78305   #    O3   0.07350515   0.64235324   0.79331012
  200 1     2      0.00000      3.06598     27.12646     16.96778   #    O4   0.07791086   0.99168417   0.80204226
  201 1     2      0.00000     14.89400     18.08435     16.78309   #    O5   0.49667606   0.64235408   0.79331190
  202 1     2      0.00000     14.89399     16.24695     18.81327   #    O6   0.49906796   0.56427487   0.88927592
  203 1     2      0.00000     14.89394     16.04527     14.93762   #    O7   0.49868987   0.56976544   0.70607921
  204 1     2      0.00000      0.84185     27.12650     16.96780   #    O8   0.00108176   0.99168561   0.80204328
  205 1     7      0.00000     28.61000      2.28983      6.29760   #   Zn1   0.98668061   0.06701985   0.29767813
  206 1     7      0.00000     17.06583      2.28979      6.29755   #   Zn2   0.58790634   0.06701840   0.29767602
  207 1     6      0.00000     24.55507     12.59880      5.44126   #    H1   0.83483037   0.46895341   0.25720039
  208 1     6      0.00000     21.96572     12.59880      5.44125   #    H2   0.74538569   0.46895353   0.25720007
  209 1     6      0.00000     16.29226      1.70348      6.53824   #    H3   0.56188428   0.04350027   0.30905294
  210 1     6      0.00000     18.07237     11.42826      7.03331   #    H4   0.61246688   0.41818735   0.33245424
  211 1     6      0.00000     18.42749      9.01492      7.18027   #    H5   0.62748282   0.32427763   0.33940072
  212 1     6      0.00000     17.59311      6.72562      6.92310   #    H6   0.60120662   0.23655533   0.32724477
  213 1     6      0.00000     17.20185      3.25279      6.82907   #    H7   0.59159991   0.10246658   0.32280000
  214 1     6      0.00000     28.02533      6.06946      5.56160   #    H8   0.96209958   0.21583070   0.26288883