Created by Ryther's code on 2025-08-05 19:29:17.808333, modified by xyan11@uic.edu. 

    584 atoms
    680 bonds
    1200 angles
    1376 dihedrals
    248 impropers

    8 atom types
    13 bond types
    25 angle types
    8 dihedral types
    2 improper types

0.00000000 31.56463518 xlo xhi
0.00000000 20.59789847 ylo yhi
0.00000000 20.53803281 zlo zhi
0.127871 -0.03212529 1.60433843 xy xz yz 

Masses 

    1    12.0107  #   C
    2    12.0107  #   C
    3    1.00794  #   H
    4    14.0067  #   N
    5    15.9994  #   O
    6    15.9994  #   O
    7    15.9994  #   O
    8      65.38  #  Zn

Pair Coeffs

    1       0.10500      3.43085  #  C_3 C_3
    2       0.10500      3.43085  #  C_R C_R
    3       0.04400      2.57113  #  H_ H_
    4       0.06900      3.26069  #  N_2 N_2
    5       0.06000      3.11815  #  O_2_M O_2_M
    6       0.06000      3.11815  #  O_3 O_3
    7       0.06000      3.11815  #  O_R O_R
    8       0.06000      2.58361  #  Zn6f3 Zn6f3

Bond Coeffs

    1      54.94924      2.40433  #  O_2_M Zn6f3 bond order=0.5
    2      55.07699      2.48452  #  N_2 Zn6f3 bond order=0.5
    3     357.44038      1.08142  #  C_R H_ bond order=1.0
    4     331.06939      1.10940  #  C_3 H_ bond order=1.0
    5      97.41657      1.20000  #  H_ H_ bond order=1.0
    6     462.65505      1.37926  #  C_R C_R bond order=1.5
    7     931.53598      1.20133  #  C_R N_2 bond order=3.0
    8     646.62465      1.31194  #  C_R O_R bond order=1.5
    9     391.66951      1.45800  #  C_R C_R bond order=1.0
    10    369.94394      1.48600  #  C_3 C_R bond order=1.0
    11    572.46041      1.36631  #  C_R O_3 bond order=1.0
    12    539.20166      1.39385  #  C_3 O_3 bond order=1.0
    13    714.55744      1.26901  #  C_R O_2_M bond order=1.5

Angle Coeffs

    1  cosine/periodic         70.47472            1            4  #  N_2 Zn6f3 O_2_M
    2  cosine/periodic         67.02484            1            4  #  O_2_M Zn6f3 O_2_M
    3  cosine/periodic         36.70173            1            1  #  C_3 H_ H_
    4  cosine/periodic        111.13144            1            1  #  C_3 H_ C_3
    5  cosine/periodic        179.74893           -1            3  #  C_R C_R N_2
    6  cosine/periodic        144.05325           -1            3  #  C_R C_R O_R
    7  cosine/periodic        111.29751           -1            3  #  C_R C_R C_R
    8  cosine/periodic         57.28902           -1            3  #  C_R C_R H_
    9  cosine/periodic        102.18328           -1            3  #  C_R C_R C_R
    10 cosine/periodic        131.74425           -1            3  #  C_R C_R O_R
    11 cosine/periodic         91.54739           -1            3  #  C_3 C_R C_R
    12 cosine/periodic         99.13715           -1            3  #  C_3 C_R C_R
    13 cosine/periodic         51.62857           -1            3  #  C_R C_R H_
    14 cosine/periodic         94.22104           -1            3  #  C_R C_R C_R
    15 fourier                121.77380      0.34375      0.37500      0.28125  #  C_R C_3 H_
    16 fourier                 75.49653      0.34375      0.37500      0.28125  #  H_ C_3 H_
    17 fourier                226.54358      0.34375      0.37500      0.28125  #  C_R C_3 C_R
    18 cosine/periodic        135.76992           -1            3  #  C_R C_R O_3
    19 fourier                165.75867      0.34375      0.37500      0.28125  #  H_ C_3 O_3
    20 cosine/periodic        137.71425           -1            3  #  C_R C_R O_2_M
    21 cosine/periodic        206.77843           -1            3  #  O_2_M C_R O_2_M
    22 fourier                 48.02888      0.36401      0.41847      0.28800  #  C_R N_2 Zn6f3
    23 fourier                322.57640      0.35263      0.39441      0.28421  #  C_R O_R C_R
    24 fourier                320.94891      0.30023      0.26733      0.26675  #  C_3 O_3 C_R
    25 cosine/periodic         21.77718           -1            3  #  C_R O_2_M Zn6f3

Dihedral Coeffs

    1       6.73711           -1            2  #  X C_R C_R X bond order=1.5
    2      27.96100           -1            2  #  X C_R N_2 X bond order=3.0
    3       6.73711           -1            2  #  X C_R O_R X bond order=1.5
    4       1.25000           -1            2  #  X C_R C_R X bond order=1.0
    5       0.16667           -1            6  #  X C_3 C_R X bond order=1.0
    6       0.23717           -1            2  #  X C_R O_3 X bond order=1.0
    7       0.03255            1            3  #  X C_3 O_3 X bond order=1.0
    8       6.73711           -1            2  #  X C_R O_2_M X bond order=1.5

Improper Coeffs

    1       2.00000      1.00000     -1.00000      0.00000            1  #  C_R X X X O_2 present=False
    2      16.66667      1.00000     -1.00000      0.00000            1  #  C_R X X X O_2 present=True

Atoms # a, b, c, alpha, beta, gamma: 31.5646351755, 20.5982953725, 20.6006243932, 85.5340307231, 90.0893489500, 89.6443144637 $$$atoms$$$

    1 1     8      0.00000     14.61105      4.70198      5.85132   #   Zn1   0.46234802   0.20608423   0.28490167
    2 1     8      0.00000      1.75906      4.68318      5.85705   #   Zn2   0.05518792   0.20514969   0.28518058
    3 1     3      0.00000     12.16535      1.14160      6.91696   #    H1   0.38563519   0.02919137   0.33678790
    4 1     3      0.00000      9.88620     10.22461      7.28221   #    H2   0.31166663   0.46877379   0.35457202
    5 1     3      0.00000      7.11439      3.76367      6.13225   #    H3   0.22504915   0.15946521   0.29858039
    6 1     3      0.00000      3.65558      1.31608      6.86968   #    H4   0.11599963   0.03784140   0.33448563
    7 1     3      0.00000      5.18332      9.71134      7.44148   #    H5   0.16278601   0.44325122   0.36232700
    8 1     3      0.00000      7.62243      9.94569      7.37004   #    H6   0.24000888   0.45489963   0.35884820
    9 1     3      0.00000     15.57000      1.69711      3.97127   #    H7   0.49319752   0.06733152   0.19336180
   10 1     3      0.00000     15.57464      7.69961      3.97358   #    H8   0.49216411   0.35873605   0.19347437
   11 1     3      0.00000      0.78562      9.83668      7.57062   #    H9   0.02344609   0.44884645   0.36861454
   12 1     3      0.00000     13.67011      1.16162      2.56651   #   H11   0.43302136   0.04666172   0.12496357
   13 1     3      0.00000     13.05021      1.17073      0.19224   #   H12   0.41322640   0.05610825   0.00936008
   14 1     3      0.00000     14.05612     10.10781      6.59155   #   H13   0.44375239   0.46572253   0.32094374
   15 1     3      0.00000     14.32063      8.79584      7.80042   #   H14   0.45246876   0.39744373   0.37980372
   16 1     3      0.00000     15.63870     10.00248      7.44997   #   H15   0.49396640   0.45735361   0.36273998
   17 1     3      0.00000      0.08111      9.04808      9.72693   #   H16   0.00142151   0.40238362   0.47360557
   18 1     3      0.00000      0.73669      8.24730      1.81101   #   H17   0.02183460   0.39352699   0.08817855
   19 1     3      0.00000     14.27237      5.17054      2.80338   #   H18   0.45132833   0.24039124   0.13649718
   20 1     3      0.00000     14.24954      5.64397      8.79581   #   H19   0.45090094   0.24065009   0.42826914
   21 1     3      0.00000      1.95563      3.64078      0.77326   #   H20   0.06129038   0.17382218   0.03765022
   22 1     3      0.00000     11.85234      5.11136      2.34481   #   H21   0.37464118   0.23925726   0.11416912
   23 1     3      0.00000     11.03920      6.33432      1.29842   #   H22   0.34857153   0.30259870   0.06322010
   24 1     3      0.00000     12.52123      6.80039      2.21391   #   H23   0.39549164   0.32175355   0.10779571
   25 1     2      0.00000     11.83945      3.88891      6.09492   #    C1   0.37471667   0.16568683   0.29676265
   26 1     2      0.00000     10.88131      2.86376      6.40228   #    C2   0.34458361   0.11475158   0.31172795
   27 1     2      0.00000     11.18262      1.57594      6.78755   #    C3   0.35440749   0.05076869   0.33048707
   28 1     2      0.00000      9.96726      0.95187      6.97504   #    C4   0.31603861   0.01976008   0.33961575
   29 1     2      0.00000      8.99889      1.90504      6.69032   #    C5   0.28515377   0.06711474   0.32575249
   30 1     2      0.00000      7.52847      1.72889      6.74390   #    C6   0.23860727   0.05835958   0.32836148
   31 1     2      0.00000      6.68781      2.80929      6.41943   #    C7   0.21174093   0.11204203   0.31256322
   32 1     2      0.00000      5.29470      2.66485      6.46344   #    C8   0.16763686   0.10486301   0.31470611
   33 1     2      0.00000      4.44327      3.77668      6.12945   #    C9   0.14042246   0.16010737   0.29844407
   34 1     2      0.00000      4.73147      1.43841      6.83242   #   C10   0.15005847   0.04392165   0.33267178
   35 1     2      0.00000      5.62138     10.65920      7.15626   #   C11   0.17645936   0.49035020   0.34843955
   36 1     2      0.00000      7.01154     10.79966      7.11345   #   C12   0.22047057   0.49733199   0.34635489
   37 1     2      0.00000      0.26869      0.76473      5.85587   #   C13   0.00874216   0.01491903   0.28512312
   38 1     2      0.00000     15.68765      0.75895      4.49953   #   C14   0.49714373   0.01978196   0.21908281
   39 1     2      0.00000     15.56080      9.84851      3.81009   #   C15   0.49129240   0.46368245   0.18551384
   40 1     2      0.00000     15.73816      8.63472      4.49530   #   C16   0.49719454   0.40215572   0.21887707
   41 1     2      0.00000      0.31922      8.62043      5.85251   #   C17   0.00879784   0.39631519   0.28495944
   42 1     1      0.00000      0.50544      9.83959      6.52443   #   C18   0.01450114   0.45295525   0.31767547
   43 1     2      0.00000     15.17650      9.85315      2.37519   #   C19   0.47902347   0.46934945   0.11564817
   44 1     2      0.00000     14.15396      0.46365      1.89475   #   C20   0.44844384   0.01532391   0.09225553
   45 1     2      0.00000     13.79316      0.46631      0.54453   #   C21   0.43692506   0.02057376   0.02651302
   46 1     2      0.00000     14.42736     10.66717      9.91785   #   C22   0.45561942   0.48026427   0.48290165
   47 1     1      0.00000     14.54299      9.85602      7.55587   #   C23   0.45928907   0.44984173   0.36789664
   48 1     2      0.00000     15.40389      8.95287      0.12386   #   C24   0.48625830   0.43417998   0.00603067
   49 1     2      0.00000     15.76527      8.94813      1.47434   #   C25   0.49779577   0.42882847   0.07178593
   50 1     2      0.00000      0.29971      4.38683      1.93818   #   C26   0.00875804   0.20562432   0.09437018
   51 1     2      0.00000     14.77544      4.90016      1.88514   #   C27   0.46725968   0.23074669   0.09178790
   52 1     2      0.00000     14.11988      5.06413      0.65103   #   C28   0.44637865   0.24338774   0.03169887
   53 1     2      0.00000     14.76469      5.51309      9.73949   #   C29   0.46730865   0.23071709   0.47421722
   54 1     2      0.00000      0.28821      4.99834      9.77020   #   C30   0.00878197   0.20560988   0.47571239
   55 1     2      0.00000      0.94810      4.03725      0.74062   #   C31   0.02929088   0.19319408   0.03606082
   56 1     1      0.00000     12.02167      5.97372      1.66591   #   C32   0.37979207   0.28369834   0.08111352
   57 1     2      0.00000      0.29001      4.82946      8.28980   #   C33   0.00877612   0.20302556   0.40363165
   58 1     2      0.00000      0.29781      4.55571      3.41857   #   C34   0.00876084   0.20820918   0.16645067
   59 1     2      0.00000      0.30968      7.13139      5.80000   #   C35   0.00878497   0.32422330   0.28240297
   60 1     2      0.00000      0.27814      2.25377      5.90837   #   C36   0.00875196   0.08701066   0.28767938
   61 1     4      0.00000     12.61118      4.71481      5.84730   #    N1   0.39898744   0.20672252   0.28470609
   62 1     4      0.00000      3.75892      4.67045      5.86096   #    N2   0.11854852   0.20451671   0.28537085
   63 1     7      0.00000      9.58220      3.03459      6.35188   #    O1   0.30338948   0.12323617   0.30927400
   64 1     6      0.00000     14.03087     10.71085      8.57294   #    O2   0.44296238   0.48748539   0.41741801
   65 1     6      0.00000     12.81576      5.57307      0.55392   #    O3   0.40495624   0.26846424   0.02697042
   66 1     5      0.00000      1.40922      4.60520      3.91758   #    O4   0.04399404   0.20871919   0.19074739
   67 1     5      0.00000      1.40265      4.76570      7.79514   #    O5   0.04400626   0.20180576   0.37954643
   68 1     5      0.00000      1.41852      6.62453      5.78461   #    O6   0.04401293   0.29967447   0.28165341
   69 1     5      0.00000      1.39335      2.74636      5.92811   #    O7   0.04398733   0.11085048   0.28864035
   70 1     5      0.00000     14.97676      6.63880      5.78026   #    O8   0.47354858   0.30038344   0.28144190
   71 1     5      0.00000     14.96089      4.77998      7.79079   #    O9   0.47354191   0.20251551   0.37933488
   72 1     5      0.00000     14.96745      4.61948      3.91322   #   O10   0.47352969   0.20942892   0.19053506
   73 1     5      0.00000     14.95158      2.76064      5.92375   #   O11   0.47352298   0.11156021   0.28842807
   74 1     8      0.00000     14.59498      5.50415     16.12034   #   Zn1   0.46234802   0.20608423   0.78490167
   75 1     8      0.00000      1.74300      5.48535     16.12606   #   Zn2   0.05518792   0.20514969   0.78518058
   76 1     3      0.00000     12.14928      1.94377     17.18598   #    H1   0.38563519   0.02919137   0.83678790
   77 1     3      0.00000      9.87013     11.02678     17.55123   #    H2   0.31166663   0.46877379   0.85457202
   78 1     3      0.00000      7.09833      4.56584     16.40127   #    H3   0.22504915   0.15946521   0.79858039
   79 1     3      0.00000      3.63952      2.11825     17.13869   #    H4   0.11599963   0.03784140   0.83448563
   80 1     3      0.00000      5.16726     10.51351     17.71050   #    H5   0.16278601   0.44325122   0.86232700
   81 1     3      0.00000      7.60637     10.74786     17.63905   #    H6   0.24000888   0.45489963   0.85884820
   82 1     3      0.00000     15.55394      2.49927     14.24029   #    H7   0.49319752   0.06733152   0.69336180
   83 1     3      0.00000     15.55857      8.50178     14.24260   #    H8   0.49216411   0.35873605   0.69347437
   84 1     3      0.00000      0.76956     10.63885     17.83963   #    H9   0.02344609   0.44884645   0.86861454
   85 1     3      0.00000     13.65405      1.96379     12.83552   #   H11   0.43302136   0.04666172   0.62496357
   86 1     3      0.00000     13.03415      1.97290     10.46125   #   H12   0.41322640   0.05610825   0.50936008
   87 1     3      0.00000     14.04006     10.90998     16.86057   #   H13   0.44375239   0.46572253   0.82094374
   88 1     3      0.00000     14.30457      9.59801     18.06944   #   H14   0.45246876   0.39744373   0.87980372
   89 1     3      0.00000     15.62264     10.80465     17.71898   #   H15   0.49396640   0.45735361   0.86273998
   90 1     3      0.00000      0.06505      9.85025     19.99594   #   H16   0.00142151   0.40238362   0.97360557
   91 1     3      0.00000      0.72063      9.04947     12.08003   #   H17   0.02183460   0.39352699   0.58817855
   92 1     3      0.00000     14.25631      5.97271     13.07240   #   H18   0.45132833   0.24039124   0.63649718
   93 1     3      0.00000     14.23348      6.44614     19.06482   #   H19   0.45090094   0.24065009   0.92826914
   94 1     3      0.00000      1.93956      4.44294     11.04228   #   H20   0.06129038   0.17382218   0.53765022
   95 1     3      0.00000     11.83628      5.91353     12.61383   #   H21   0.37464118   0.23925726   0.61416912
   96 1     3      0.00000     11.02313      7.13649     11.56743   #   H22   0.34857153   0.30259870   0.56322010
   97 1     3      0.00000     12.50517      7.60256     12.48293   #   H23   0.39549164   0.32175355   0.60779571
   98 1     2      0.00000     11.82339      4.69108     16.36394   #    C1   0.37471667   0.16568683   0.79676265
   99 1     2      0.00000     10.86525      3.66593     16.67130   #    C2   0.34458361   0.11475158   0.81172795
  100 1     2      0.00000     11.16656      2.37811     17.05657   #    C3   0.35440749   0.05076869   0.83048707
  101 1     2      0.00000      9.95120      1.75404     17.24406   #    C4   0.31603861   0.01976008   0.83961575
  102 1     2      0.00000      8.98283      2.70721     16.95933   #    C5   0.28515377   0.06711474   0.82575249
  103 1     2      0.00000      7.51240      2.53106     17.01292   #    C6   0.23860727   0.05835958   0.82836148
  104 1     2      0.00000      6.67175      3.61146     16.68845   #    C7   0.21174093   0.11204203   0.81256322
  105 1     2      0.00000      5.27863      3.46702     16.73246   #    C8   0.16763686   0.10486301   0.81470611
  106 1     2      0.00000      4.42721      4.57885     16.39847   #    C9   0.14042246   0.16010737   0.79844407
  107 1     2      0.00000      4.71541      2.24058     17.10144   #   C10   0.15005847   0.04392165   0.83267178
  108 1     2      0.00000      5.60532     11.46137     17.42528   #   C11   0.17645936   0.49035020   0.84843955
  109 1     2      0.00000      6.99548     11.60183     17.38246   #   C12   0.22047057   0.49733199   0.84635489
  110 1     2      0.00000      0.25263      1.56690     16.12488   #   C13   0.00874216   0.01491903   0.78512312
  111 1     2      0.00000     15.67159      1.56112     14.76855   #   C14   0.49714373   0.01978196   0.71908281
  112 1     2      0.00000     15.54473     10.65068     14.07911   #   C15   0.49129240   0.46368245   0.68551384
  113 1     2      0.00000     15.72209      9.43688     14.76432   #   C16   0.49719454   0.40215572   0.71887707
  114 1     2      0.00000      0.30316      9.42260     16.12152   #   C17   0.00879784   0.39631519   0.78495944
  115 1     1      0.00000      0.48937     10.64175     16.79345   #   C18   0.01450114   0.45295525   0.81767547
  116 1     2      0.00000     15.16044     10.65532     12.64420   #   C19   0.47902347   0.46934945   0.61564817
  117 1     2      0.00000     14.13790      1.26582     12.16376   #   C20   0.44844384   0.01532391   0.59225553
  118 1     2      0.00000     13.77710      1.26848     10.81354   #   C21   0.43692506   0.02057376   0.52651302
  119 1     2      0.00000     14.41130     11.46934     20.18687   #   C22   0.45561942   0.48026427   0.98290165
  120 1     1      0.00000     14.52693     10.65819     17.82489   #   C23   0.45928907   0.44984173   0.86789664
  121 1     2      0.00000     15.38783      9.75504     10.39287   #   C24   0.48625830   0.43417998   0.50603067
  122 1     2      0.00000     15.74921      9.75030     11.74336   #   C25   0.49779577   0.42882847   0.57178593
  123 1     2      0.00000      0.28364      5.18900     12.20719   #   C26   0.00875804   0.20562432   0.59437018
  124 1     2      0.00000     14.75938      5.70232     12.15416   #   C27   0.46725968   0.23074669   0.59178790
  125 1     2      0.00000     14.10382      5.86630     10.92005   #   C28   0.44637865   0.24338774   0.53169887
  126 1     2      0.00000     14.74863      6.31526     20.00851   #   C29   0.46730865   0.23071709   0.97421722
  127 1     2      0.00000      0.27215      5.80050     20.03921   #   C30   0.00878197   0.20560988   0.97571239
  128 1     2      0.00000      0.93204      4.83942     11.00963   #   C31   0.02929088   0.19319408   0.53606082
  129 1     1      0.00000     12.00561      6.77589     11.93493   #   C32   0.37979207   0.28369834   0.58111352
  130 1     2      0.00000      0.27395      5.63163     18.55882   #   C33   0.00877612   0.20302556   0.90363165
  131 1     2      0.00000      0.28175      5.35788     13.68759   #   C34   0.00876084   0.20820918   0.66645067
  132 1     2      0.00000      0.29362      7.93356     16.06902   #   C35   0.00878497   0.32422330   0.78240297
  133 1     2      0.00000      0.26207      3.05594     16.17739   #   C36   0.00875196   0.08701066   0.78767938
  134 1     4      0.00000     12.59512      5.51698     16.11632   #    N1   0.39898744   0.20672252   0.78470609
  135 1     4      0.00000      3.74286      5.47262     16.12997   #    N2   0.11854852   0.20451671   0.78537085
  136 1     7      0.00000      9.56614      3.83676     16.62090   #    O1   0.30338948   0.12323617   0.80927400
  137 1     6      0.00000     14.01481     11.51302     18.84196   #    O2   0.44296238   0.48748539   0.91741801
  138 1     6      0.00000     12.79970      6.37524     10.82294   #    O3   0.40495624   0.26846424   0.52697042
  139 1     5      0.00000      1.39315      5.40737     14.18659   #    O4   0.04399404   0.20871919   0.69074739
  140 1     5      0.00000      1.38659      5.56786     18.06415   #    O5   0.04400626   0.20180576   0.87954643
  141 1     5      0.00000      1.40246      7.42670     16.05362   #    O6   0.04401293   0.29967447   0.78165341
  142 1     5      0.00000      1.37728      3.54853     16.19712   #    O7   0.04398733   0.11085048   0.78864035
  143 1     5      0.00000     14.96069      7.44096     16.04928   #    O8   0.47354858   0.30038344   0.78144190
  144 1     5      0.00000     14.94482      5.58214     18.05981   #    O9   0.47354191   0.20251551   0.87933488
  145 1     5      0.00000     14.95139      5.42165     14.18223   #   O10   0.47352969   0.20942892   0.69053506
  146 1     5      0.00000     14.93552      3.56281     16.19276   #   O11   0.47352298   0.11156021   0.78842807
  147 1     8      0.00000     14.67498     15.00093      5.85132   #   Zn1   0.46234802   0.70608423   0.28490167
  148 1     8      0.00000      1.82299     14.98213      5.85705   #   Zn2   0.05518792   0.70514969   0.28518058
  149 1     3      0.00000     12.22928     11.44055      6.91696   #    H1   0.38563519   0.52919137   0.33678790
  150 1     3      0.00000      9.95013     20.52356      7.28221   #    H2   0.31166663   0.96877379   0.35457202
  151 1     3      0.00000      7.17833     14.06262      6.13225   #    H3   0.22504915   0.65946521   0.29858039
  152 1     3      0.00000      3.71951     11.61503      6.86968   #    H4   0.11599963   0.53784140   0.33448563
  153 1     3      0.00000      5.24726     20.01029      7.44148   #    H5   0.16278601   0.94325122   0.36232700
  154 1     3      0.00000      7.68637     20.24464      7.37004   #    H6   0.24000888   0.95489963   0.35884820
  155 1     3      0.00000     15.63393     11.99605      3.97127   #    H7   0.49319752   0.56733152   0.19336180
  156 1     3      0.00000     15.63857     17.99856      3.97358   #    H8   0.49216411   0.85873605   0.19347437
  157 1     3      0.00000      0.84956     20.13563      7.57062   #    H9   0.02344609   0.94884645   0.36861454
  158 1     3      0.00000     13.73405     11.46057      2.56651   #   H11   0.43302136   0.54666172   0.12496357
  159 1     3      0.00000     13.11415     11.46968      0.19224   #   H12   0.41322640   0.55610825   0.00936008
  160 1     3      0.00000     14.12006     20.40676      6.59155   #   H13   0.44375239   0.96572253   0.32094374
  161 1     3      0.00000     14.38457     19.09479      7.80042   #   H14   0.45246876   0.89744373   0.37980372
  162 1     3      0.00000     15.70263     20.30143      7.44997   #   H15   0.49396640   0.95735361   0.36273998
  163 1     3      0.00000      0.14504     19.34703      9.72693   #   H16   0.00142151   0.90238362   0.47360557
  164 1     3      0.00000      0.80062     18.54625      1.81101   #   H17   0.02183460   0.89352699   0.08817855
  165 1     3      0.00000     14.33630     15.46949      2.80338   #   H18   0.45132833   0.74039124   0.13649718
  166 1     3      0.00000     14.31347     15.94292      8.79581   #   H19   0.45090094   0.74065009   0.42826914
  167 1     3      0.00000      2.01956     13.93972      0.77326   #   H20   0.06129038   0.67382218   0.03765022
  168 1     3      0.00000     11.91627     15.41031      2.34481   #   H21   0.37464118   0.73925726   0.11416912
  169 1     3      0.00000     11.10313     16.63327      1.29842   #   H22   0.34857153   0.80259870   0.06322010
  170 1     3      0.00000     12.58516     17.09934      2.21391   #   H23   0.39549164   0.82175355   0.10779571
  171 1     2      0.00000     11.90338     14.18786      6.09492   #    C1   0.37471667   0.66568683   0.29676265
  172 1     2      0.00000     10.94525     13.16271      6.40228   #    C2   0.34458361   0.61475158   0.31172795
  173 1     2      0.00000     11.24655     11.87489      6.78755   #    C3   0.35440749   0.55076869   0.33048707
  174 1     2      0.00000     10.03120     11.25082      6.97504   #    C4   0.31603861   0.51976008   0.33961575
  175 1     2      0.00000      9.06283     12.20399      6.69032   #    C5   0.28515377   0.56711474   0.32575249
  176 1     2      0.00000      7.59240     12.02784      6.74390   #    C6   0.23860727   0.55835958   0.32836148
  177 1     2      0.00000      6.75175     13.10824      6.41943   #    C7   0.21174093   0.61204203   0.31256322
  178 1     2      0.00000      5.35863     12.96380      6.46344   #    C8   0.16763686   0.60486301   0.31470611
  179 1     2      0.00000      4.50720     14.07563      6.12945   #    C9   0.14042246   0.66010737   0.29844407
  180 1     2      0.00000      4.79541     11.73736      6.83242   #   C10   0.15005847   0.54392165   0.33267178
  181 1     2      0.00000      5.68532     20.95815      7.15626   #   C11   0.17645936   0.99035020   0.34843955
  182 1     2      0.00000      7.07548     21.09861      7.11345   #   C12   0.22047057   0.99733199   0.34635489
  183 1     2      0.00000      0.33263     11.06368      5.85587   #   C13   0.00874216   0.51491903   0.28512312
  184 1     2      0.00000     15.75159     11.05790      4.49953   #   C14   0.49714373   0.51978196   0.21908281
  185 1     2      0.00000     15.62473     20.14746      3.81009   #   C15   0.49129240   0.96368245   0.18551384
  186 1     2      0.00000     15.80209     18.93366      4.49530   #   C16   0.49719454   0.90215572   0.21887707
  187 1     2      0.00000      0.38316     18.91938      5.85251   #   C17   0.00879784   0.89631519   0.28495944
  188 1     1      0.00000      0.56937     20.13853      6.52443   #   C18   0.01450114   0.95295525   0.31767547
  189 1     2      0.00000     15.24044     20.15210      2.37519   #   C19   0.47902347   0.96934945   0.11564817
  190 1     2      0.00000     14.21790     10.76260      1.89475   #   C20   0.44844384   0.51532391   0.09225553
  191 1     2      0.00000     13.85709     10.76526      0.54453   #   C21   0.43692506   0.52057376   0.02651302
  192 1     2      0.00000     14.49129     20.96612      9.91785   #   C22   0.45561942   0.98026427   0.48290165
  193 1     1      0.00000     14.60693     20.15497      7.55587   #   C23   0.45928907   0.94984173   0.36789664
  194 1     2      0.00000     15.46783     19.25182      0.12386   #   C24   0.48625830   0.93417998   0.00603067
  195 1     2      0.00000     15.82921     19.24708      1.47434   #   C25   0.49779577   0.92882847   0.07178593
  196 1     2      0.00000      0.36364     14.68578      1.93818   #   C26   0.00875804   0.70562432   0.09437018
  197 1     2      0.00000     14.83937     15.19910      1.88514   #   C27   0.46725968   0.73074669   0.09178790
  198 1     2      0.00000     14.18382     15.36308      0.65103   #   C28   0.44637865   0.74338774   0.03169887
  199 1     2      0.00000     14.82863     15.81204      9.73949   #   C29   0.46730865   0.73071709   0.47421722
  200 1     2      0.00000      0.35214     15.29728      9.77020   #   C30   0.00878197   0.70560988   0.47571239
  201 1     2      0.00000      1.01204     14.33620      0.74062   #   C31   0.02929088   0.69319408   0.03606082
  202 1     1      0.00000     12.08560     16.27267      1.66591   #   C32   0.37979207   0.78369834   0.08111352
  203 1     2      0.00000      0.35394     15.12841      8.28980   #   C33   0.00877612   0.70302556   0.40363165
  204 1     2      0.00000      0.36174     14.85466      3.41857   #   C34   0.00876084   0.70820918   0.16645067
  205 1     2      0.00000      0.37362     17.43034      5.80000   #   C35   0.00878497   0.82422330   0.28240297
  206 1     2      0.00000      0.34207     12.55272      5.90837   #   C36   0.00875196   0.58701066   0.28767938
  207 1     4      0.00000     12.67512     15.01376      5.84730   #    N1   0.39898744   0.70672252   0.28470609
  208 1     4      0.00000      3.82286     14.96940      5.86096   #    N2   0.11854852   0.70451671   0.28537085
  209 1     7      0.00000      9.64614     13.33354      6.35188   #    O1   0.30338948   0.62323617   0.30927400
  210 1     6      0.00000     14.09481     21.00980      8.57294   #    O2   0.44296238   0.98748539   0.41741801
  211 1     6      0.00000     12.87969     15.87202      0.55392   #    O3   0.40495624   0.76846424   0.02697042
  212 1     5      0.00000      1.47315     14.90415      3.91758   #    O4   0.04399404   0.70871919   0.19074739
  213 1     5      0.00000      1.46659     15.06464      7.79514   #    O5   0.04400626   0.70180576   0.37954643
  214 1     5      0.00000      1.48246     16.92348      5.78461   #    O6   0.04401293   0.79967447   0.28165341
  215 1     5      0.00000      1.45728     13.04531      5.92811   #    O7   0.04398733   0.61085048   0.28864035
  216 1     5      0.00000     15.04069     16.93774      5.78026   #    O8   0.47354858   0.80038344   0.28144190
  217 1     5      0.00000     15.02482     15.07892      7.79079   #    O9   0.47354191   0.70251551   0.37933488