Created by Ryther's code on 2025-07-29 22:46:52.274035, modified by xyan11@uic.edu. 

    456 atoms
    536 bonds
    1056 angles
    968 dihedrals
    176 impropers

    10 atom types
    22 bond types
    50 angle types
    5 dihedral types
    2 improper types

0.00000000 22.63732972 xlo xhi
0.00000000 29.96793431 ylo yhi
0.00000000 21.29490344 zlo zhi
-1.10000203 0.31591436 1.66514872 xy xz yz 

Masses 

    1    12.0107  #   C
    2    12.0107  #   C
    3    12.0107  #   C
    4    1.00794  #   H
    5    14.0067  #   N
    6    15.9994  #   O
    7    15.9994  #   O
    8      65.38  #  Zn
    9      65.38  #  Zn
   10      65.38  #  Zn

Pair Coeffs

    1       0.10500      3.43085  #  C_1 C_1
    2       0.10500      3.43085  #  C_3 C_3
    3       0.10500      3.43085  #  C_R C_R
    4       0.04400      2.57113  #  H_ H_
    5       0.06900      3.26069  #  N_2 N_2
    6       0.06000      3.11815  #  O_2_M O_2_M
    7       0.06000      3.11815  #  O_3_M O_3_M
    8       0.12400      2.46155  #  Zn4+2 Zn4+2
    9       0.06000      2.58361  #  Zn6f3 Zn6f3
    10      0.04000      2.67270  #  Zn8f4 Zn8f4

Bond Coeffs

    1      54.94924      2.40433  #  O_2_M Zn6f3 bond order=0.5
    2      53.24274      2.42975  #  O_3_M Zn6f3 bond order=0.5
    3      55.07699      2.48452  #  N_2 Zn6f3 bond order=0.5
    4      24.34887      2.13340  #  H_ Zn6f3 bond order=0.5
    5     103.61325      2.20128  #  N_2 Zn4+2 bond order=0.5
    6     104.44141      2.12294  #  O_2_M Zn4+2 bond order=0.5
    7      48.90184      1.84943  #  H_ Zn4+2 bond order=0.5
    8     100.76218      2.14847  #  O_3_M Zn4+2 bond order=0.5
    9     331.06939      1.10940  #  C_3 H_ bond order=1.0
    10     18.86555      2.24262  #  H_ Zn8f4 bond order=0.5
    11    559.99521      0.99025  #  H_ O_3_M bond order=1.0
    12    357.44038      1.08142  #  C_R H_ bond order=1.0
    13    978.49444      1.18180  #  C_1 N_2 bond order=3.0
    14    387.66747      1.46300  #  C_1 C_3 bond order=1.0
    15    349.79590      1.51400  #  C_3 C_3 bond order=1.0
    16    462.65505      1.37926  #  C_R C_R bond order=1.5
    17    391.66951      1.45800  #  C_R C_R bond order=1.0
    18    714.55744      1.26901  #  C_R O_2_M bond order=1.5
    19    678.02790      1.29140  #  C_R O_3_M bond order=1.5
    20     43.32822      2.51269  #  O_2_M Zn8f4 bond order=0.5
    21     42.04147      2.53807  #  O_3_M Zn8f4 bond order=0.5
    22     43.57940      2.59350  #  N_2 Zn8f4 bond order=0.5

Angle Coeffs

    1  cosine/periodic         67.02484            1            4  #  O_2_M Zn6f3 O_2_M
    2  cosine/periodic         65.96675            1            4  #  O_2_M Zn6f3 O_3_M
    3  cosine/periodic         70.47472            1            4  #  N_2 Zn6f3 O_2_M
    4  cosine/periodic         24.38538            1            4  #  H_ Zn6f3 O_2_M
    5  cosine/periodic         69.42201            1            4  #  N_2 Zn6f3 O_3_M
    6  cosine/periodic         23.92551            1            4  #  H_ Zn6f3 O_3_M
    7  cosine/periodic         25.39208            1            4  #  H_ Zn6f3 N_2
    8  cosine/periodic        101.82219            1            4  #  N_2 Zn4+2 O_2_M
    9  cosine/periodic         37.39156            1            4  #  H_ Zn4+2 N_2
    10 cosine/periodic        100.10309            1            4  #  N_2 Zn4+2 O_3_M
    11 cosine/periodic         36.20045            1            4  #  H_ Zn4+2 O_2_M
    12 cosine/periodic         95.61832            1            4  #  O_2_M Zn4+2 O_3_M
    13 cosine/periodic         97.36576            1            4  #  O_2_M Zn4+2 O_2_M
    14 cosine/periodic         35.40556            1            4  #  H_ Zn4+2 O_3_M
    15 cosine/periodic         14.11273            1            4  #  H_ Zn4+2 H_
    16 cosine/periodic         20.34317            1            1  #  O_3_M H_ Zn8f4
    17 cosine/periodic         43.63912            1            1  #  O_3_M H_ Zn4+2
    18 cosine/periodic         87.29919            1            1  #  C_3 C_1 N_2
    19 fourier                117.31542      0.34375      0.37500      0.28125  #  C_3 C_3 H_
    20 fourier                225.28003      0.34375      0.37500      0.28125  #  C_1 C_3 C_3
    21 fourier                 75.49653      0.34375      0.37500      0.28125  #  H_ C_3 H_
    22 fourier                125.57576      0.34375      0.37500      0.28125  #  C_1 C_3 H_
    23 cosine/periodic        111.29751           -1            3  #  C_R C_R C_R
    24 cosine/periodic        102.18328           -1            3  #  C_R C_R C_R
    25 cosine/periodic         57.28902           -1            3  #  C_R C_R H_
    26 cosine/periodic        137.71425           -1            3  #  C_R C_R O_2_M
    27 cosine/periodic        206.77843           -1            3  #  O_2_M C_R O_2_M
    28 cosine/periodic        134.57449           -1            3  #  C_R C_R O_3_M
    29 cosine/periodic        201.38050           -1            3  #  O_2_M C_R O_3_M
    30 fourier                 48.37175      0.36401      0.41847      0.28800  #  C_1 N_2 Zn6f3
    31 fourier                 85.70408      0.36401      0.41847      0.28800  #  C_1 N_2 Zn4+2
    32 cosine/periodic         37.72922           -1            3  #  C_R O_2_M Zn4+2
    33 fourier                 41.31289      0.30023      0.26733      0.26675  #  H_ O_3_M Zn4+2
    34 fourier                 99.02913      0.30023      0.26733      0.26675  #  C_R O_3_M Zn4+2
    35 fourier                203.65891      0.30023      0.26733      0.26675  #  C_R O_3_M H_
    36 cosine/periodic         21.77718           -1            3  #  C_R O_2_M Zn6f3
    37 fourier                 55.81766      0.30023      0.26733      0.26675  #  C_R O_3_M Zn6f3
    38 fourier                 22.33312      0.30023      0.26733      0.26675  #  H_ O_3_M Zn6f3
    39 cosine/periodic         17.67091           -1            3  #  C_R O_2_M Zn8f4
    40 fourier                 24.62448      0.34375      0.37500      0.28125  #  H_ Zn8f4 O_2_M
    41 fourier                 24.20745      0.34375      0.37500      0.28125  #  H_ Zn8f4 O_3_M
    42 fourier                 25.79329      0.34375      0.37500      0.28125  #  H_ Zn8f4 N_2
    43 fourier                 67.80662      0.34375      0.37500      0.28125  #  O_2_M Zn8f4 O_2_M
    44 fourier                 66.78648      0.34375      0.37500      0.28125  #  O_2_M Zn8f4 O_3_M
    45 fourier                 71.45583      0.34375      0.37500      0.28125  #  N_2 Zn8f4 O_2_M
    46 fourier                 70.41858      0.34375      0.37500      0.28125  #  N_2 Zn8f4 O_3_M
    47 cosine/periodic         25.05849            1            1  #  O_3_M H_ Zn6f3
    48 fourier                 38.93833      0.36401      0.41847      0.28800  #  C_1 N_2 Zn8f4
    49 fourier                 17.70941      0.30023      0.26733      0.26675  #  H_ O_3_M Zn8f4
    50 fourier                 44.86565      0.30023      0.26733      0.26675  #  C_R O_3_M Zn8f4

Dihedral Coeffs

    1       0.11772            1            3  #  X C_3 C_3 X bond order=1.0
    2       3.36856           -1            2  #  X C_R C_R X bond order=1.5
    3       1.25000           -1            2  #  X C_R C_R X bond order=1.0
    4       6.73711           -1            2  #  X C_R O_2_M X bond order=1.5
    5       0.31957           -1            2  #  X C_R O_3_M X bond order=1.5

Improper Coeffs

    1       2.00000      1.00000     -1.00000      0.00000            1  #  C_R X X X O_2 present=False
    2      16.66667      1.00000     -1.00000      0.00000            1  #  C_R X X X O_2 present=True

Atoms # a, b, c, alpha, beta, gamma: 22.6373297190, 29.9881158364, 21.3622432009, 85.5635507060, 89.1526536215, 92.1021532745 $$$atoms$$$

    1 1     9      0.00000      3.36952      0.69763      6.32990   #   Zn1   0.14502809   0.00676284   0.29724959
    2 1     8      0.00000      6.29746      0.80557      6.27798   #   Zn2   0.27458522   0.01049996   0.29481155
    3 1     4      0.00000     10.10119     15.20339      8.76340   #    H1   0.46401605   0.48445583   0.41152569
    4 1     4      0.00000      0.32455      1.66827      9.15575   #    H2   0.00988118   0.03177843   0.42995032
    5 1     4      0.00000     10.33444      3.00430      7.42551   #    H3   0.45558589   0.08087531   0.34869872
    6 1     4      0.00000      9.34242      2.40512      8.80176   #    H4   0.40971527   0.05729022   0.41332683
    7 1     4      0.00000      3.51511     14.96956      5.37400   #    H5   0.17534898   0.48549694   0.25236100
    8 1     4      0.00000      5.84487     11.66978      7.93949   #    H6   0.27090874   0.36869248   0.37283516
    9 1     4      0.00000      5.94338      9.23093      7.93103   #    H7   0.27131234   0.28733260   0.37243784
   10 1     4      0.00000      3.10586      9.12706      4.67788   #    H8   0.14834152   0.29235482   0.21967113
   11 1     4      0.00000      3.02609     11.56616      4.66868   #    H9   0.14877961   0.37376920   0.21923920
   12 1     4      0.00000      4.60941      7.30867      4.14565   #   H10   0.21222808   0.23306585   0.19467790
   13 1     4      0.00000      4.68555      4.86944      4.14502   #   H11   0.21163703   0.15167266   0.19464859
   14 1     4      0.00000      4.67826      4.86901      8.46410   #   H13   0.20793611   0.14038880   0.39747079
   15 1     4      0.00000      4.57640      7.30774      8.46354   #   H14   0.20739158   0.22176808   0.39744441
   16 1     4      0.00000      5.76120      1.47706      5.49375   #   H15   0.25259807   0.03495320   0.25798416
   17 1     4      0.00000      2.56704     14.03335      2.32926   #   H16   0.13433149   0.46220131   0.10938126
   18 1     4      0.00000      2.68890     14.67568     10.54373   #   H17   0.13433148   0.46220133   0.49512924
   19 1     4      0.00000      6.54940      2.45330     10.27910   #   H18   0.28525687   0.05504301   0.48270250
   20 1     4      0.00000      6.42752      1.81090      2.06379   #   H19   0.28525684   0.05504299   0.09691468
   21 1     4      0.00000      5.78301      1.59201      6.96385   #   H20   0.25259826   0.03495305   0.32701964
   22 1     1      0.00000      0.65380      0.86354      7.24106   #    C1   0.02461845   0.00992144   0.34003701
   23 1     2      0.00000     11.06130      1.16751      8.35339   #    C2   0.48399074   0.01716241   0.39227203
   24 1     2      0.00000      9.92433      2.09171      7.90940   #    C3   0.43561101   0.04916038   0.37142216
   25 1     1      0.00000      9.01317      1.41333      6.97693   #    C4   0.39498980   0.02895668   0.32763366
   26 1     3      0.00000      4.42819     11.81031      6.30374   #    C5   0.20983412   0.37764992   0.29602103
   27 1     3      0.00000      5.24279     11.12608      7.22215   #    C6   0.24399151   0.35242157   0.33914943
   28 1     3      0.00000      5.29341      9.72924      7.22272   #    C7   0.24396193   0.30580890   0.33917590
   29 1     3      0.00000      4.53167      8.98586      6.30445   #    C8   0.20982512   0.28339920   0.29605453
   30 1     3      0.00000      3.71776      9.67161      5.38606   #    C9   0.17570110   0.30867812   0.25292729
   31 1     3      0.00000      3.66628     11.06847      5.38622   #   C10   0.17569177   0.35528969   0.25293471
   32 1     3      0.00000      4.58585      7.50133      6.30457   #   C11   0.20981128   0.23386155   0.29605994
   33 1     3      0.00000      4.61125      6.78665      5.09431   #   C12   0.21072120   0.21317109   0.23922695
   34 1     3      0.00000      4.66279      5.38978      5.09430   #   C13   0.21073287   0.16655923   0.23922621
   35 1     3      0.00000      4.68892      4.67687      6.30415   #   C14   0.20978487   0.13961326   0.29604028
   36 1     3      0.00000      4.66301      5.39005      7.51491   #   C15   0.20884985   0.16025200   0.35289721
   37 1     3      0.00000      4.61260      6.78690      7.51491   #   C16   0.20888809   0.20686349   0.35289716
   38 1     3      0.00000      4.77546      0.44543      2.38839   #   C17   0.20980950   0.00863159   0.11215804
   39 1     3      0.00000      3.28681     14.59957      1.75131   #   C18   0.16749757   0.48260342   0.08224061
   40 1     3      0.00000      3.26614     14.49060      0.35774   #   C19   0.16749754   0.48260344   0.01679954
   41 1     3      0.00000      4.89164      1.05778     10.21949   #   C20   0.20980945   0.00863161   0.47990326
   42 1     3      0.00000      5.67156      1.05439      0.20914   #   C21   0.25208646   0.03463821   0.00982106
   43 1     3      0.00000      5.69224      1.16337      1.60281   #   C22   0.25208645   0.03463820   0.07526721
   44 1     3      0.00000      4.87161      0.88878      8.73925   #   C23   0.20980849   0.00685463   0.41039144
   45 1     3      0.00000      4.79540      0.61444      3.86864   #   C24   0.20980623   0.01040878   0.18166972
   46 1     3      0.00000      4.74274      3.18880      6.25094   #   C25   0.20979112   0.09009652   0.29354155
   47 1     3      0.00000      4.37427     13.29837      6.35695   #   C26   0.20982356   0.42716635   0.29851965
   48 1     5      0.00000      1.37127      0.62397      6.36523   #    N1   0.05660905   0.00421270   0.29890843
   49 1     5      0.00000      8.29570      0.87933      6.24255   #    N2   0.36300424   0.01305376   0.29314759
   50 1     6      0.00000      5.91323      0.71206      4.34572   #    O1   0.25897139   0.01242150   0.20407326
   51 1     6      0.00000      5.97602      0.87307      8.22276   #    O2   0.25897419   0.00767796   0.38613731
   52 1     7      0.00000      5.87194      2.73036      6.21343   #    O3   0.25895951   0.07489683   0.29178021
   53 1     6      0.00000      5.46731     13.83873      6.35504   #    O4   0.25898604   0.44520263   0.29843031
   54 1     6      0.00000      3.64967      2.64843      6.25284   #    O5   0.16062723   0.07206017   0.29363082
   55 1     6      0.00000      3.75375      0.79116      8.26216   #    O6   0.16064192   0.00484184   0.38798789
   56 1     7      0.00000      3.69095      0.63015      4.38511   #    O7   0.16063912   0.00958536   0.20592308
   57 1     6      0.00000      3.24503     13.75682      6.39444   #    O8   0.16065376   0.44236649   0.30028018
   58 1     9      0.00000      3.52747      1.53021     16.97735   #   Zn1   0.14502809   0.00676284   0.79724959
   59 1     8      0.00000      6.45542      1.63814     16.92544   #   Zn2   0.27458522   0.01049996   0.79481155
   60 1     4      0.00000     10.25915     16.03597     19.41085   #    H1   0.46401605   0.48445583   0.91152569
   61 1     4      0.00000      0.48251      2.50084     19.80320   #    H2   0.00988118   0.03177843   0.92995032
   62 1     4      0.00000     10.49240      3.83688     18.07296   #    H3   0.45558589   0.08087531   0.84869872
   63 1     4      0.00000      9.50037      3.23769     19.44921   #    H4   0.40971527   0.05729022   0.91332683
   64 1     4      0.00000      3.67307     15.80213     16.02145   #    H5   0.17534898   0.48549694   0.75236100
   65 1     4      0.00000      6.00283     12.50235     18.58694   #    H6   0.27090874   0.36869248   0.87283516
   66 1     4      0.00000      6.10134     10.06350     18.57848   #    H7   0.27131234   0.28733260   0.87243784
   67 1     4      0.00000      3.26382      9.95963     15.32533   #    H8   0.14834152   0.29235482   0.71967113
   68 1     4      0.00000      3.18404     12.39873     15.31613   #    H9   0.14877961   0.37376920   0.71923920
   69 1     4      0.00000      4.76736      8.14124     14.79310   #   H10   0.21222808   0.23306585   0.69467790
   70 1     4      0.00000      4.84351      5.70201     14.79247   #   H11   0.21163703   0.15167266   0.69464859
   71 1     4      0.00000      4.83621      5.70158     19.11155   #   H13   0.20793611   0.14038880   0.89747079
   72 1     4      0.00000      4.73436      8.14031     19.11099   #   H14   0.20739158   0.22176808   0.89744441
   73 1     4      0.00000      5.91916      2.30963     16.14120   #   H15   0.25259807   0.03495320   0.75798416
   74 1     4      0.00000      2.72500     14.86593     12.97672   #   H16   0.13433149   0.46220131   0.60938126
   75 1     4      0.00000      2.84686     15.50826     21.19118   #   H17   0.13433148   0.46220133   0.99512924
   76 1     4      0.00000      6.70736      3.28587     20.92655   #   H18   0.28525687   0.05504301   0.98270250
   77 1     4      0.00000      6.58548      2.64348     12.71124   #   H19   0.28525684   0.05504299   0.59691468
   78 1     4      0.00000      5.94097      2.42458     17.61130   #   H20   0.25259826   0.03495305   0.82701964
   79 1     1      0.00000      0.81176      1.69611     17.88851   #    C1   0.02461845   0.00992144   0.84003701
   80 1     2      0.00000     11.21926      2.00009     19.00085   #    C2   0.48399074   0.01716241   0.89227203
   81 1     2      0.00000     10.08229      2.92428     18.55685   #    C3   0.43561101   0.04916038   0.87142216
   82 1     1      0.00000      9.17112      2.24590     17.62438   #    C4   0.39498980   0.02895668   0.82763366
   83 1     3      0.00000      4.58614     12.64288     16.95119   #    C5   0.20983412   0.37764992   0.79602103
   84 1     3      0.00000      5.40075     11.95866     17.86961   #    C6   0.24399151   0.35242157   0.83914943
   85 1     3      0.00000      5.45136     10.56181     17.87017   #    C7   0.24396193   0.30580890   0.83917590
   86 1     3      0.00000      4.68963      9.81844     16.95190   #    C8   0.20982512   0.28339920   0.79605453
   87 1     3      0.00000      3.87572     10.50418     16.03351   #    C9   0.17570110   0.30867812   0.75292729
   88 1     3      0.00000      3.82424     11.90105     16.03367   #   C10   0.17569177   0.35528969   0.75293471
   89 1     3      0.00000      4.74381      8.33391     16.95202   #   C11   0.20981128   0.23386155   0.79605994
   90 1     3      0.00000      4.76921      7.61922     15.74177   #   C12   0.21072120   0.21317109   0.73922695
   91 1     3      0.00000      4.82075      6.22236     15.74175   #   C13   0.21073287   0.16655923   0.73922621
   92 1     3      0.00000      4.84687      5.50945     16.95160   #   C14   0.20978487   0.13961326   0.79604028
   93 1     3      0.00000      4.82097      6.22262     18.16236   #   C15   0.20884985   0.16025200   0.85289721
   94 1     3      0.00000      4.77056      7.61947     18.16236   #   C16   0.20888809   0.20686349   0.85289716
   95 1     3      0.00000      4.93342      1.27800     13.03585   #   C17   0.20980950   0.00863159   0.61215804
   96 1     3      0.00000      3.44477     15.43214     12.39876   #   C18   0.16749757   0.48260342   0.58224061
   97 1     3      0.00000      3.42410     15.32318     11.00520   #   C19   0.16749754   0.48260344   0.51679954
   98 1     3      0.00000      5.04960      1.89036     20.86695   #   C20   0.20980945   0.00863161   0.97990326
   99 1     3      0.00000      5.82952      1.88696     10.85659   #   C21   0.25208646   0.03463821   0.50982106
  100 1     3      0.00000      5.85020      1.99594     12.25026   #   C22   0.25208645   0.03463820   0.57526721
  101 1     3      0.00000      5.02957      1.72136     19.38670   #   C23   0.20980849   0.00685463   0.91039144
  102 1     3      0.00000      4.95335      1.44701     14.51609   #   C24   0.20980623   0.01040878   0.68166972
  103 1     3      0.00000      4.90070      4.02137     16.89839   #   C25   0.20979112   0.09009652   0.79354155
  104 1     3      0.00000      4.53223     14.13095     17.00440   #   C26   0.20982356   0.42716635   0.79851965
  105 1     5      0.00000      1.52923      1.45655     17.01268   #    N1   0.05660905   0.00421270   0.79890843
  106 1     5      0.00000      8.45365      1.71190     16.89000   #    N2   0.36300424   0.01305376   0.79314759
  107 1     6      0.00000      6.07118      1.54463     14.99317   #    O1   0.25897139   0.01242150   0.70407326
  108 1     6      0.00000      6.13398      1.70564     18.87021   #    O2   0.25897419   0.00767796   0.88613731
  109 1     7      0.00000      6.02990      3.56294     16.86088   #    O3   0.25895951   0.07489683   0.79178021
  110 1     6      0.00000      5.62526     14.67131     17.00250   #    O4   0.25898604   0.44520263   0.79843031
  111 1     6      0.00000      3.80762      3.48101     16.90029   #    O5   0.16062723   0.07206017   0.79363082
  112 1     6      0.00000      3.91171      1.62373     18.90962   #    O6   0.16064192   0.00484184   0.88798789
  113 1     7      0.00000      3.84891      1.46272     15.03256   #    O7   0.16063912   0.00958536   0.70592308
  114 1     6      0.00000      3.40299     14.58940     17.04189   #    O8   0.16065376   0.44236649   0.80028018
  115 1     10     0.00000      2.81951     15.68160      6.32990   #   Zn1   0.14502809   0.50676284   0.29724959
  116 1     8      0.00000      5.74746     15.78953      6.27798   #   Zn2   0.27458522   0.51049996   0.29481155
  117 1     4      0.00000      9.55119     30.18736      8.76340   #    H1   0.46401605   0.98445583   0.41152569
  118 1     4      0.00000     -0.22545     16.65223      9.15575   #    H2   0.00988118   0.53177843   0.42995032
  119 1     4      0.00000      9.78444     17.98827      7.42551   #    H3   0.45558589   0.58087531   0.34869872
  120 1     4      0.00000      8.79242     17.38909      8.80176   #    H4   0.40971527   0.55729022   0.41332683
  121 1     4      0.00000      2.96511     29.95353      5.37400   #    H5   0.17534898   0.98549694   0.25236100
  122 1     4      0.00000      5.29487     26.65375      7.93949   #    H6   0.27090874   0.86869248   0.37283516
  123 1     4      0.00000      5.39338     24.21490      7.93103   #    H7   0.27131234   0.78733260   0.37243784
  124 1     4      0.00000      2.55586     24.11102      4.67788   #    H8   0.14834152   0.79235482   0.21967113
  125 1     4      0.00000      2.47609     26.55012      4.66868   #    H9   0.14877961   0.87376920   0.21923920
  126 1     4      0.00000      4.05940     22.29264      4.14565   #   H10   0.21222808   0.73306585   0.19467790
  127 1     4      0.00000      4.13555     19.85340      4.14502   #   H11   0.21163703   0.65167266   0.19464859
  128 1     4      0.00000      4.12826     19.85298      8.46410   #   H13   0.20793611   0.64038880   0.39747079
  129 1     4      0.00000      4.02640     22.29170      8.46354   #   H14   0.20739158   0.72176808   0.39744441
  130 1     4      0.00000      5.21120     16.46102      5.49375   #   H15   0.25259807   0.53495320   0.25798416
  131 1     4      0.00000      2.01704     29.01732      2.32926   #   H16   0.13433149   0.96220131   0.10938126
  132 1     4      0.00000      2.13890     29.65965     10.54373   #   H17   0.13433148   0.96220133   0.49512924
  133 1     4      0.00000      5.99940     17.43726     10.27910   #   H18   0.28525687   0.55504301   0.48270250
  134 1     4      0.00000      5.87752     16.79487      2.06379   #   H19   0.28525684   0.55504299   0.09691468
  135 1     4      0.00000      5.23301     16.57597      6.96385   #   H20   0.25259826   0.53495305   0.32701964
  136 1     1      0.00000      0.10380     15.84750      7.24106   #    C1   0.02461845   0.50992144   0.34003701
  137 1     2      0.00000     10.51130     16.15148      8.35339   #    C2   0.48399074   0.51716241   0.39227203
  138 1     2      0.00000      9.37433     17.07568      7.90940   #    C3   0.43561101   0.54916038   0.37142216
  139 1     1      0.00000      8.46317     16.39730      6.97693   #    C4   0.39498980   0.52895668   0.32763366
  140 1     3      0.00000      3.87818     26.79427      6.30374   #    C5   0.20983412   0.87764992   0.29602103
  141 1     3      0.00000      4.69279     26.11005      7.22215   #    C6   0.24399151   0.85242157   0.33914943
  142 1     3      0.00000      4.74341     24.71321      7.22272   #    C7   0.24396193   0.80580890   0.33917590
  143 1     3      0.00000      3.98167     23.96983      6.30445   #    C8   0.20982512   0.78339920   0.29605453
  144 1     3      0.00000      3.16776     24.65557      5.38606   #    C9   0.17570110   0.80867812   0.25292729
  145 1     3      0.00000      3.11628     26.05244      5.38622   #   C10   0.17569177   0.85528969   0.25293471
  146 1     3      0.00000      4.03585     22.48530      6.30457   #   C11   0.20981128   0.73386155   0.29605994
  147 1     3      0.00000      4.06125     21.77061      5.09431   #   C12   0.21072120   0.71317109   0.23922695
  148 1     3      0.00000      4.11279     20.37375      5.09430   #   C13   0.21073287   0.66655923   0.23922621
  149 1     3      0.00000      4.13892     19.66084      6.30415   #   C14   0.20978487   0.63961326   0.29604028
  150 1     3      0.00000      4.11301     20.37402      7.51491   #   C15   0.20884985   0.66025200   0.35289721
  151 1     3      0.00000      4.06260     21.77086      7.51491   #   C16   0.20888809   0.70686349   0.35289716
  152 1     3      0.00000      4.22546     15.42940      2.38839   #   C17   0.20980950   0.50863159   0.11215804
  153 1     3      0.00000      2.73681     29.58354      1.75131   #   C18   0.16749757   0.98260342   0.08224061
  154 1     3      0.00000      2.71614     29.47457      0.35774   #   C19   0.16749754   0.98260344   0.01679954
  155 1     3      0.00000      4.34164     16.04175     10.21949   #   C20   0.20980945   0.50863161   0.47990326
  156 1     3      0.00000      5.12156     16.03836      0.20914   #   C21   0.25208646   0.53463821   0.00982106
  157 1     3      0.00000      5.14224     16.14733      1.60281   #   C22   0.25208645   0.53463820   0.07526721
  158 1     3      0.00000      4.32161     15.87275      8.73925   #   C23   0.20980849   0.50685463   0.41039144
  159 1     3      0.00000      4.24539     15.59840      3.86864   #   C24   0.20980623   0.51040878   0.18166972
  160 1     3      0.00000      4.19274     18.17276      6.25094   #   C25   0.20979112   0.59009652   0.29354155
  161 1     3      0.00000      3.82427     28.28234      6.35695   #   C26   0.20982356   0.92716635   0.29851965
  162 1     5      0.00000      0.82127     15.60794      6.36523   #    N1   0.05660905   0.50421270   0.29890843
  163 1     5      0.00000      7.74570     15.86330      6.24255   #    N2   0.36300424   0.51305376   0.29314759
  164 1     6      0.00000      5.36323     15.69603      4.34572   #    O1   0.25897139   0.51242150   0.20407326
  165 1     6      0.00000      5.42602     15.85704      8.22276   #    O2   0.25897419   0.50767796   0.38613731
  166 1     7      0.00000      5.32194     17.71433      6.21343   #    O3   0.25895951   0.57489683   0.29178021
  167 1     6      0.00000      4.91731     28.82270      6.35504   #    O4   0.25898604   0.94520263   0.29843031
  168 1     6      0.00000      3.09967     17.63240      6.25284   #    O5   0.16062723   0.57206017   0.29363082
  169 1     6      0.00000      3.20375     15.77512      8.26216   #    O6   0.16064192   0.50484184   0.38798789
  170 1     7      0.00000      3.14095     15.61411      4.38511   #    O7   0.16063912   0.50958536   0.20592308
  171 1     6      0.00000      2.69503     28.74079      6.39444   #    O8   0.16065376   0.94236649   0.30028018
  172 1     10     0.00000      2.97747     16.51417     16.97735   #   Zn1   0.14502809   0.50676284   0.79724959
  173 1     8      0.00000      5.90542     16.62211     16.92544   #   Zn2   0.27458522   0.51049996   0.79481155
  174 1     4      0.00000      9.70914     31.01993     19.41085   #    H1   0.46401605   0.98445583   0.91152569
  175 1     4      0.00000     -0.06749     17.48481     19.80320   #    H2   0.00988118   0.53177843   0.92995032
  176 1     4      0.00000      9.94240     18.82084     18.07296   #    H3   0.45558589   0.58087531   0.84869872
  177 1     4      0.00000      8.95037     18.22166     19.44921   #    H4   0.40971527   0.55729022   0.91332683
  178 1     4      0.00000      3.12307     30.78610     16.02145   #    H5   0.17534898   0.98549694   0.75236100
  179 1     4      0.00000      5.45283     27.48632     18.58694   #    H6   0.27090874   0.86869248   0.87283516
  180 1     4      0.00000      5.55134     25.04747     18.57848   #    H7   0.27131234   0.78733260   0.87243784
  181 1     4      0.00000      2.71382     24.94360     15.32533   #    H8   0.14834152   0.79235482   0.71967113
  182 1     4      0.00000      2.63404     27.38270     15.31613   #    H9   0.14877961   0.87376920   0.71923920
  183 1     4      0.00000      4.21736     23.12521     14.79310   #   H10   0.21222808   0.73306585   0.69467790
  184 1     4      0.00000      4.29351     20.68598     14.79247   #   H11   0.21163703   0.65167266   0.69464859
  185 1     4      0.00000      4.28621     20.68555     19.11155   #   H13   0.20793611   0.64038880   0.89747079
  186 1     4      0.00000      4.18436     23.12428     19.11099   #   H14   0.20739158   0.72176808   0.89744441
  187 1     4      0.00000      5.36915     17.29360     16.14120   #   H15   0.25259807   0.53495320   0.75798416
  188 1     4      0.00000      2.17500     29.84990     12.97672   #   H16   0.13433149   0.96220131   0.60938126
  189 1     4      0.00000      2.29686     30.49222     21.19118   #   H17   0.13433148   0.96220133   0.99512924
  190 1     4      0.00000      6.15736     18.26984     20.92655   #   H18   0.28525687   0.55504301   0.98270250
  191 1     4      0.00000      6.03548     17.62744     12.71124   #   H19   0.28525684   0.55504299   0.59691468
  192 1     4      0.00000      5.39097     17.40855     17.61130   #   H20   0.25259826   0.53495305   0.82701964
  193 1     1      0.00000      0.26176     16.68008     17.88851   #    C1   0.02461845   0.50992144   0.84003701