Created by Ryther's code on 2025-07-29 22:47:05.774212, modified by xyan11@uic.edu. 

    360 atoms
    424 bonds
    744 angles
    816 dihedrals
    160 impropers

    6 atom types
    8 bond types
    13 angle types
    5 dihedral types
    2 improper types

0.00000000 28.11890241 xlo xhi
0.00000000 20.60454257 ylo yhi
0.00000000 20.54273515 zlo zhi
-0.02201141 0.0187638 1.59487223 xy xz yz 

Masses 

    1    12.0107  #   C
    2    1.00794  #   H
    3    14.0067  #   N
    4    15.9994  #   O
    5     32.065  #   S
    6      65.38  #  Zn

Pair Coeffs

    1       0.10500      3.43085  #  C_R C_R
    2       0.04400      2.57113  #  H_ H_
    3       0.06900      3.26069  #  N_2 N_2
    4       0.06000      3.11815  #  O_2_M O_2_M
    5       0.27400      3.59478  #  S_3 S_3
    6       0.06000      2.58361  #  Zn6f3 Zn6f3

Bond Coeffs

    1      54.94924      2.40433  #  O_2_M Zn6f3 bond order=0.5
    2      55.07699      2.48452  #  N_2 Zn6f3 bond order=0.5
    3     357.44038      1.08142  #  C_R H_ bond order=1.0
    4     462.65505      1.37926  #  C_R C_R bond order=1.5
    5     931.53598      1.20133  #  C_R N_2 bond order=3.0
    6     301.29678      1.78592  #  C_R S_3 bond order=1.0
    7     391.66951      1.45800  #  C_R C_R bond order=1.0
    8     714.55744      1.26901  #  C_R O_2_M bond order=1.5

Angle Coeffs

    1  cosine/periodic         67.02484            1            4  #  O_2_M Zn6f3 O_2_M
    2  cosine/periodic         70.47472            1            4  #  N_2 Zn6f3 O_2_M
    3  cosine/periodic        179.74893           -1            3  #  C_R C_R N_2
    4  cosine/periodic        111.29751           -1            3  #  C_R C_R C_R
    5  cosine/periodic         57.28902           -1            3  #  C_R C_R H_
    6  cosine/periodic         48.24065           -1            3  #  H_ C_R S_3
    7  cosine/periodic        101.95051           -1            3  #  C_R C_R S_3
    8  cosine/periodic        102.18328           -1            3  #  C_R C_R C_R
    9  cosine/periodic        137.71425           -1            3  #  C_R C_R O_2_M
    10 cosine/periodic        206.77843           -1            3  #  O_2_M C_R O_2_M
    11 fourier                211.54307      0.25101      0.03669      0.25034  #  C_R S_3 C_R
    12 fourier                 48.02888      0.36401      0.41847      0.28800  #  C_R N_2 Zn6f3
    13 cosine/periodic         21.77718           -1            3  #  C_R O_2_M Zn6f3

Dihedral Coeffs

    1       6.73711           -1            2  #  X C_R C_R X bond order=1.5
    2      27.96100           -1            2  #  X C_R N_2 X bond order=3.0
    3       1.22984           -1            2  #  X C_R S_3 X bond order=1.0
    4       1.25000           -1            2  #  X C_R C_R X bond order=1.0
    5       6.73711           -1            2  #  X C_R O_2_M X bond order=1.5

Improper Coeffs

    1       2.00000      1.00000     -1.00000      0.00000            1  #  C_R X X X O_2 present=False
    2      16.66667      1.00000     -1.00000      0.00000            1  #  C_R X X X O_2 present=True

Atoms # a, b, c, alpha, beta, gamma: 28.1189024052, 20.6045543238, 20.6045610682, 85.5607043742, 89.9478228738, 90.0612078859 $$$atoms$$$

    1 1     6      0.00000      0.53291      4.80537      5.81849   #   Zn1   0.01892830   0.21129503   0.28323834
    2 1     6      0.00000      3.46330      4.80854      5.81553   #   Zn2   0.12314283   0.21146032   0.28309403
    3 1     2      0.00000     10.68208      2.47639      7.93141   #    H1   0.37970259   0.09030153   0.38609301
    4 1     2      0.00000      9.05640      5.46284      5.22195   #    H2   0.32209771   0.24545213   0.25419923
    5 1     2      0.00000      0.38485      9.95638      6.57603   #    H4   0.01383172   0.45843456   0.32011459
    6 1     2      0.00000      3.77500      7.82440      4.97668   #    H6   0.13437239   0.36098954   0.24225978
    7 1     2      0.00000      4.87122      9.96117      4.45810   #    H7   0.17345689   0.46664740   0.21701582
    8 1     2      0.00000      3.78145      1.79332      4.97668   #    H8   0.13437240   0.06828336   0.24225971
    9 1     2      0.00000      0.81538      5.73597      0.57932   #   H10   0.02919505   0.27620097   0.02820089
   10 1     2      0.00000      3.30522      3.57040      8.93644   #   H12   0.11736329   0.13961030   0.43501689
   11 1     2      0.00000      4.10268      2.03114      0.86395   #   H13   0.14595128   0.09532175   0.04205632
   12 1     2      0.00000      3.29973      3.10357      2.92345   #   H14   0.11736334   0.13961030   0.14231063
   13 1     1      0.00000     11.52246      4.47678      6.11655   #    C1   0.40972954   0.19422472   0.29774765
   14 1     1      0.00000     10.19329      4.07135      6.48438   #    C2   0.36243150   0.17316186   0.31565325
   15 1     1      0.00000      9.93877      3.05889      7.40294   #    C3   0.35330919   0.12056298   0.36036754
   16 1     1      0.00000      7.87476      4.10462      6.45418   #    C4   0.27997945   0.17489052   0.31418329
   17 1     1      0.00000      9.04042      4.66078      5.94961   #    C5   0.32147298   0.20378394   0.28962123
   18 1     1      0.00000      6.53930      4.49569      6.09939   #    C6   0.23251372   0.19520703   0.29691227
   19 1     1      0.00000      2.00236      0.87903      5.81701   #    C7   0.07103785   0.02074378   0.28316633
   20 1     1      0.00000      1.36413      9.95742      6.11373   #    C8   0.04867452   0.46022722   0.29761036
   21 1     1      0.00000      1.99397      8.73489      5.81701   #    C9   0.07103782   0.40201189   0.28316634
   22 1     1      0.00000      3.26498      8.74892      5.21699   #   C10   0.11626082   0.40495387   0.25395768
   23 1     1      0.00000      3.89234      9.96012      4.92021   #   C11   0.13862846   0.46485540   0.23951083
   24 1     1      0.00000      3.27340      0.86771      5.21698   #   C12   0.11626082   0.02245534   0.25395763
   25 1     1      0.00000      1.99459      4.50292      1.90087   #   C13   0.07103784   0.21137783   0.09253225
   26 1     1      0.00000      1.53293      4.92728      0.64145   #   C14   0.05468041   0.23671884   0.03122521
   27 1     1      0.00000      2.00174      5.11099      9.73316   #   C15   0.07103784   0.21137783   0.47380041
   28 1     1      0.00000      2.93307      4.06237      9.82643   #   C16   0.10411575   0.16013341   0.47834095
   29 1     1      0.00000      3.38543      2.83949      0.80185   #   C17   0.12047637   0.13478753   0.03903315
   30 1     1      0.00000      2.92590      3.45233      1.96887   #   C18   0.10411580   0.16013342   0.09584241
   31 1     1      0.00000      2.00042      4.94277      8.25269   #   C19   0.07103678   0.20879165   0.40173256
   32 1     1      0.00000      1.99582      4.67116      3.38133   #   C20   0.07103549   0.21396452   0.16459987
   33 1     1      0.00000      1.99544      7.24584      5.76387   #   C21   0.07103539   0.32994410   0.28057943
   34 1     1      0.00000      2.00080      2.36807      5.87015   #   C22   0.07103684   0.09281129   0.28575303
   35 1     5      0.00000      8.26996      2.89543      7.55122   #    S1   0.29394905   0.11207124   0.36758604
   36 1     3      0.00000     12.59245      4.80320      5.82041   #    N1   0.44780486   0.21118271   0.28333159
   37 1     3      0.00000      5.46321      4.81081      5.81350   #    N2   0.19426627   0.21157794   0.28299545
   38 1     4      0.00000      3.10830      4.72877      3.87706   #    O1   0.11058357   0.21489254   0.18873165
   39 1     4      0.00000      3.11204      4.88756      7.75470   #    O2   0.11058511   0.20798860   0.37749106
   40 1     4      0.00000      3.10800      6.74732      5.74496   #    O3   0.11058346   0.30582074   0.27965905
   41 1     4      0.00000      3.11233      2.86901      5.88680   #    O4   0.11058519   0.11706041   0.28656361
   42 1     4      0.00000      0.88387      6.74490      5.74722   #    O5   0.03148591   0.30569495   0.27976876
   43 1     4      0.00000      0.88791      4.88516      7.75695   #    O6   0.03148756   0.20786359   0.37760073
   44 1     4      0.00000      0.88417      4.72636      3.87930   #    O7   0.03148602   0.21476751   0.18884054
   45 1     4      0.00000      0.88820      2.86661      5.88904   #    O8   0.03148763   0.11693537   0.28667255
   46 1     6      0.00000      0.54229      5.60280     16.08986   #   Zn1   0.01892830   0.21129503   0.78323834
   47 1     6      0.00000      3.47268      5.60598     16.08689   #   Zn2   0.12314283   0.21146032   0.78309403
   48 1     2      0.00000     10.69146      3.27383     18.20277   #    H1   0.37970259   0.09030153   0.88609301
   49 1     2      0.00000      9.06578      6.26028     15.49332   #    H2   0.32209771   0.24545213   0.75419923
   50 1     2      0.00000      0.39423     10.75381     16.84740   #    H4   0.01383172   0.45843456   0.82011459
   51 1     2      0.00000      3.78439      8.62183     15.24805   #    H6   0.13437239   0.36098954   0.74225978
   52 1     2      0.00000      4.88060     10.75860     14.72947   #    H7   0.17345689   0.46664740   0.71701582
   53 1     2      0.00000      3.79083      2.59076     15.24804   #    H8   0.13437240   0.06828336   0.74225971
   54 1     2      0.00000      0.82476      6.53341     10.85069   #   H10   0.02919505   0.27620097   0.52820089
   55 1     2      0.00000      3.31460      4.36784     19.20780   #   H12   0.11736329   0.13961030   0.93501689
   56 1     2      0.00000      4.11206      2.82857     11.13532   #   H13   0.14595128   0.09532175   0.54205632
   57 1     2      0.00000      3.30911      3.90101     13.19482   #   H14   0.11736334   0.13961030   0.64231063
   58 1     1      0.00000     11.53184      5.27422     16.38792   #    C1   0.40972954   0.19422472   0.79774765
   59 1     1      0.00000     10.20267      4.86878     16.75575   #    C2   0.36243150   0.17316186   0.81565325
   60 1     1      0.00000      9.94816      3.85632     17.67430   #    C3   0.35330919   0.12056298   0.86036754
   61 1     1      0.00000      7.88414      4.90206     16.72555   #    C4   0.27997945   0.17489052   0.81418329
   62 1     1      0.00000      9.04980      5.45822     16.22098   #    C5   0.32147298   0.20378394   0.78962123
   63 1     1      0.00000      6.54869      5.29312     16.37076   #    C6   0.23251372   0.19520703   0.79691227
   64 1     1      0.00000      2.01174      1.67647     16.08838   #    C7   0.07103785   0.02074378   0.78316633
   65 1     1      0.00000      1.37351     10.75486     16.38510   #    C8   0.04867452   0.46022722   0.79761036
   66 1     1      0.00000      2.00335      9.53232     16.08838   #    C9   0.07103782   0.40201189   0.78316634
   67 1     1      0.00000      3.27436      9.54636     15.48835   #   C10   0.11626082   0.40495387   0.75395768
   68 1     1      0.00000      3.90172     10.75756     15.19158   #   C11   0.13862846   0.46485540   0.73951083
   69 1     1      0.00000      3.28278      1.66515     15.48835   #   C12   0.11626082   0.02245534   0.75395763
   70 1     1      0.00000      2.00397      5.30036     12.17223   #   C13   0.07103784   0.21137783   0.59253225
   71 1     1      0.00000      1.54231      5.72472     10.91282   #   C14   0.05468041   0.23671884   0.53122521
   72 1     1      0.00000      2.01113      5.90843     20.00452   #   C15   0.07103784   0.21137783   0.97380041
   73 1     1      0.00000      2.94245      4.85980     20.09780   #   C16   0.10411575   0.16013341   0.97834095
   74 1     1      0.00000      3.39481      3.63692     11.07322   #   C17   0.12047637   0.13478753   0.53903315
   75 1     1      0.00000      2.93528      4.24977     12.24023   #   C18   0.10411580   0.16013342   0.59584241
   76 1     1      0.00000      2.00980      5.74020     18.52405   #   C19   0.07103678   0.20879165   0.90173256
   77 1     1      0.00000      2.00520      5.46859     13.65270   #   C20   0.07103549   0.21396452   0.66459987
   78 1     1      0.00000      2.00482      8.04327     16.03524   #   C21   0.07103539   0.32994410   0.78057943
   79 1     1      0.00000      2.01018      3.16551     16.14152   #   C22   0.07103684   0.09281129   0.78575303
   80 1     5      0.00000      8.27934      3.69287     17.82259   #    S1   0.29394905   0.11207124   0.86758604
   81 1     3      0.00000     12.60183      5.60064     16.09177   #    N1   0.44780486   0.21118271   0.78333159
   82 1     3      0.00000      5.47259      5.60824     16.08487   #    N2   0.19426627   0.21157794   0.78299545
   83 1     4      0.00000      3.11768      5.52620     14.14843   #    O1   0.11058357   0.21489254   0.68873165
   84 1     4      0.00000      3.12142      5.68500     18.02607   #    O2   0.11058511   0.20798860   0.87749106
   85 1     4      0.00000      3.11738      7.54475     16.01633   #    O3   0.11058346   0.30582074   0.77965905
   86 1     4      0.00000      3.12172      3.66644     16.15817   #    O4   0.11058519   0.11706041   0.78656361
   87 1     4      0.00000      0.89325      7.54234     16.01858   #    O5   0.03148591   0.30569495   0.77976876
   88 1     4      0.00000      0.89729      5.68260     18.02832   #    O6   0.03148756   0.20786359   0.87760073
   89 1     4      0.00000      0.89355      5.52380     14.15067   #    O7   0.03148602   0.21476751   0.68884054
   90 1     4      0.00000      0.89758      3.66404     16.16041   #    O8   0.03148763   0.11693537   0.78667255
   91 1     6      0.00000      0.52190     15.10764      5.81849   #   Zn1   0.01892830   0.71129503   0.28323834
   92 1     6      0.00000      3.45229     15.11081      5.81553   #   Zn2   0.12314283   0.71146032   0.28309403
   93 1     2      0.00000     10.67107     12.77866      7.93141   #    H1   0.37970259   0.59030153   0.38609301
   94 1     2      0.00000      9.04540     15.76512      5.22195   #    H2   0.32209771   0.74545213   0.25419923
   95 1     2      0.00000      0.37384     20.25865      6.57603   #    H4   0.01383172   0.95843456   0.32011459
   96 1     2      0.00000      3.76400     18.12667      4.97668   #    H6   0.13437239   0.86098954   0.24225978
   97 1     2      0.00000      4.86021     20.26344      4.45810   #    H7   0.17345689   0.96664740   0.21701582
   98 1     2      0.00000      3.77044     12.09559      4.97668   #    H8   0.13437240   0.56828336   0.24225971
   99 1     2      0.00000      0.80438     16.03824      0.57932   #   H10   0.02919505   0.77620097   0.02820089
  100 1     2      0.00000      3.29421     13.87267      8.93644   #   H12   0.11736329   0.63961030   0.43501689
  101 1     2      0.00000      4.09167     12.33341      0.86395   #   H13   0.14595128   0.59532175   0.04205632
  102 1     2      0.00000      3.28872     13.40584      2.92345   #   H14   0.11736334   0.63961030   0.14231063
  103 1     1      0.00000     11.51145     14.77905      6.11655   #    C1   0.40972954   0.69422472   0.29774765
  104 1     1      0.00000     10.18228     14.37362      6.48438   #    C2   0.36243150   0.67316186   0.31565325
  105 1     1      0.00000      9.92777     13.36116      7.40294   #    C3   0.35330919   0.62056298   0.36036754
  106 1     1      0.00000      7.86375     14.40689      6.45418   #    C4   0.27997945   0.67489052   0.31418329
  107 1     1      0.00000      9.02941     14.96305      5.94961   #    C5   0.32147298   0.70378394   0.28962123
  108 1     1      0.00000      6.52830     14.79796      6.09939   #    C6   0.23251372   0.69520703   0.29691227
  109 1     1      0.00000      1.99136     11.18130      5.81701   #    C7   0.07103785   0.52074378   0.28316633
  110 1     1      0.00000      1.35312     20.25969      6.11373   #    C8   0.04867452   0.96022722   0.29761036
  111 1     1      0.00000      1.98296     19.03716      5.81701   #    C9   0.07103782   0.90201189   0.28316634
  112 1     1      0.00000      3.25397     19.05119      5.21699   #   C10   0.11626082   0.90495387   0.25395768
  113 1     1      0.00000      3.88134     20.26239      4.92021   #   C11   0.13862846   0.96485540   0.23951083
  114 1     1      0.00000      3.26239     11.16998      5.21698   #   C12   0.11626082   0.52245534   0.25395763
  115 1     1      0.00000      1.98358     14.80519      1.90087   #   C13   0.07103784   0.71137783   0.09253225
  116 1     1      0.00000      1.52192     15.22955      0.64145   #   C14   0.05468041   0.73671884   0.03122521
  117 1     1      0.00000      1.99074     15.41327      9.73316   #   C15   0.07103784   0.71137783   0.47380041
  118 1     1      0.00000      2.92207     14.36464      9.82643   #   C16   0.10411575   0.66013341   0.47834095
  119 1     1      0.00000      3.37442     13.14176      0.80185   #   C17   0.12047637   0.63478753   0.03903315
  120 1     1      0.00000      2.91489     13.75460      1.96887   #   C18   0.10411580   0.66013342   0.09584241
  121 1     1      0.00000      1.98941     15.24504      8.25269   #   C19   0.07103678   0.70879165   0.40173256
  122 1     1      0.00000      1.98481     14.97343      3.38133   #   C20   0.07103549   0.71396452   0.16459987
  123 1     1      0.00000      1.98443     17.54811      5.76387   #   C21   0.07103539   0.82994410   0.28057943
  124 1     1      0.00000      1.98979     12.67035      5.87015   #   C22   0.07103684   0.59281129   0.28575303
  125 1     5      0.00000      8.25895     13.19770      7.55122   #    S1   0.29394905   0.61207124   0.36758604
  126 1     3      0.00000     12.58144     15.10547      5.82041   #    N1   0.44780486   0.71118271   0.28333159
  127 1     3      0.00000      5.45220     15.11308      5.81350   #    N2   0.19426627   0.71157794   0.28299545
  128 1     4      0.00000      3.09729     15.03104      3.87706   #    O1   0.11058357   0.71489254   0.18873165
  129 1     4      0.00000      3.10103     15.18983      7.75470   #    O2   0.11058511   0.70798860   0.37749106
  130 1     4      0.00000      3.09700     17.04959      5.74496   #    O3   0.11058346   0.80582074   0.27965905
  131 1     4      0.00000      3.10133     13.17128      5.88680   #    O4   0.11058519   0.61706041   0.28656361
  132 1     4      0.00000      0.87286     17.04717      5.74722   #    O5   0.03148591   0.80569495   0.27976876
  133 1     4      0.00000      0.87690     15.18743      7.75695   #    O6   0.03148756   0.70786359   0.37760073
  134 1     4      0.00000      0.87316     15.02863      3.87930   #    O7   0.03148602   0.71476751   0.18884054
  135 1     4      0.00000      0.87720     13.16888      5.88904   #    O8   0.03148763   0.61693537   0.28667255
  136 1     6      0.00000      0.53128     15.90507     16.08986   #   Zn1   0.01892830   0.71129503   0.78323834
  137 1     6      0.00000      3.46167     15.90825     16.08689   #   Zn2   0.12314283   0.71146032   0.78309403
  138 1     2      0.00000     10.68045     13.57610     18.20277   #    H1   0.37970259   0.59030153   0.88609301
  139 1     2      0.00000      9.05478     16.56255     15.49332   #    H2   0.32209771   0.74545213   0.75419923
  140 1     2      0.00000      0.38322     21.05608     16.84740   #    H4   0.01383172   0.95843456   0.82011459
  141 1     2      0.00000      3.77338     18.92411     15.24805   #    H6   0.13437239   0.86098954   0.74225978
  142 1     2      0.00000      4.86959     21.06088     14.72947   #    H7   0.17345689   0.96664740   0.71701582
  143 1     2      0.00000      3.77982     12.89303     15.24804   #    H8   0.13437240   0.56828336   0.74225971
  144 1     2      0.00000      0.81376     16.83568     10.85069   #   H10   0.02919505   0.77620097   0.52820089
  145 1     2      0.00000      3.30359     14.67011     19.20780   #   H12   0.11736329   0.63961030   0.93501689
  146 1     2      0.00000      4.10106     13.13084     11.13532   #   H13   0.14595128   0.59532175   0.54205632
  147 1     2      0.00000      3.29810     14.20328     13.19482   #   H14   0.11736334   0.63961030   0.64231063
  148 1     1      0.00000     11.52083     15.57649     16.38792   #    C1   0.40972954   0.69422472   0.79774765
  149 1     1      0.00000     10.19166     15.17105     16.75575   #    C2   0.36243150   0.67316186   0.81565325
  150 1     1      0.00000      9.93715     14.15859     17.67430   #    C3   0.35330919   0.62056298   0.86036754
  151 1     1      0.00000      7.87314     15.20433     16.72555   #    C4   0.27997945   0.67489052   0.81418329
  152 1     1      0.00000      9.03879     15.76049     16.22098   #    C5   0.32147298   0.70378394   0.78962123
  153 1     1      0.00000      6.53768     15.59540     16.37076   #    C6   0.23251372   0.69520703   0.79691227
  154 1     1      0.00000      2.00074     11.97874     16.08838   #    C7   0.07103785   0.52074378   0.78316633
  155 1     1      0.00000      1.36250     21.05713     16.38510   #    C8   0.04867452   0.96022722   0.79761036
  156 1     1      0.00000      1.99235     19.83459     16.08838   #    C9   0.07103782   0.90201189   0.78316634
  157 1     1      0.00000      3.26335     19.84863     15.48835   #   C10   0.11626082   0.90495387   0.75395768
  158 1     1      0.00000      3.89072     21.05983     15.19158   #   C11   0.13862846   0.96485540   0.73951083
  159 1     1      0.00000      3.27177     11.96742     15.48835   #   C12   0.11626082   0.52245534   0.75395763
  160 1     1      0.00000      1.99297     15.60263     12.17223   #   C13   0.07103784   0.71137783   0.59253225
  161 1     1      0.00000      1.53130     16.02699     10.91282   #   C14   0.05468041   0.73671884   0.53122521
  162 1     1      0.00000      2.00012     16.21070     20.00452   #   C15   0.07103784   0.71137783   0.97380041
  163 1     1      0.00000      2.93145     15.16208     20.09780   #   C16   0.10411575   0.66013341   0.97834095
  164 1     1      0.00000      3.38381     13.93920     11.07322   #   C17   0.12047637   0.63478753   0.53903315
  165 1     1      0.00000      2.92427     14.55204     12.24023   #   C18   0.10411580   0.66013342   0.59584241
  166 1     1      0.00000      1.99879     16.04248     18.52405   #   C19   0.07103678   0.70879165   0.90173256
  167 1     1      0.00000      1.99420     15.77086     13.65270   #   C20   0.07103549   0.71396452   0.66459987
  168 1     1      0.00000      1.99382     18.34554     16.03524   #   C21   0.07103539   0.82994410   0.78057943
  169 1     1      0.00000      1.99917     13.46778     16.14152   #   C22   0.07103684   0.59281129   0.78575303
  170 1     5      0.00000      8.26833     13.99514     17.82259   #    S1   0.29394905   0.61207124   0.86758604
  171 1     3      0.00000     12.59083     15.90291     16.09177   #    N1   0.44780486   0.71118271   0.78333159
  172 1     3      0.00000      5.46158     15.91052     16.08487   #    N2   0.19426627   0.71157794   0.78299545
  173 1     4      0.00000      3.10668     15.82847     14.14843   #    O1   0.11058357   0.71489254   0.68873165
  174 1     4      0.00000      3.11041     15.98727     18.02607   #    O2   0.11058511   0.70798860   0.87749106
  175 1     4      0.00000      3.10638     17.84702     16.01633   #    O3   0.11058346   0.80582074   0.77965905
  176 1     4      0.00000      3.11071     13.96872     16.15817   #    O4   0.11058519   0.61706041   0.78656361
  177 1     4      0.00000      0.88225     17.84461     16.01858   #    O5   0.03148591   0.80569495   0.77976876
  178 1     4      0.00000      0.88628     15.98487     18.02832   #    O6   0.03148756   0.70786359   0.87760073
  179 1     4      0.00000      0.88254     15.82607     14.15067   #    O7   0.03148602   0.71476751   0.68884054
  180 1     4      0.00000      0.88658     13.96631     16.16041   #    O8   0.03148763   0.61693537   0.78667255
  181 1     6      0.00000     14.59236      4.80537      5.81849   #   Zn1   0.51892830   0.21129503   0.28323834
  182 1     6      0.00000     17.52275      4.80854      5.81553   #   Zn2   0.62314283   0.21146032   0.28309403
  183 1     2      0.00000     24.74153      2.47639      7.93141   #    H1   0.87970259   0.09030153   0.38609301
  184 1     2      0.00000     23.11585      5.46284      5.22195   #    H2   0.82209771   0.24545213   0.25419923
  185 1     2      0.00000     14.44430      9.95638      6.57603   #    H4   0.51383172   0.45843456   0.32011459
  186 1     2      0.00000     17.83446      7.82440      4.97668   #    H6   0.63437239   0.36098954   0.24225978
  187 1     2      0.00000     18.93067      9.96117      4.45810   #    H7   0.67345689   0.46664740   0.21701582
  188 1     2      0.00000     17.84090      1.79332      4.97668   #    H8   0.63437240   0.06828336   0.24225971
  189 1     2      0.00000     14.87483      5.73597      0.57932   #   H10   0.52919505   0.27620097   0.02820089
  190 1     2      0.00000     17.36467      3.57040      8.93644   #   H12   0.61736329   0.13961030   0.43501689
  191 1     2      0.00000     18.16213      2.03114      0.86395   #   H13   0.64595128   0.09532175   0.04205632
  192 1     2      0.00000     17.35918      3.10357      2.92345   #   H14   0.61736334   0.13961030   0.14231063
  193 1     1      0.00000     25.58191      4.47678      6.11655   #    C1   0.90972954   0.19422472   0.29774765
  194 1     1      0.00000     24.25274      4.07135      6.48438   #    C2   0.86243150   0.17316186   0.31565325
  195 1     1      0.00000     23.99823      3.05889      7.40294   #    C3   0.85330919   0.12056298   0.36036754
  196 1     1      0.00000     21.93421      4.10462      6.45418   #    C4   0.77997945   0.17489052   0.31418329
  197 1     1      0.00000     23.09987      4.66078      5.94961   #    C5   0.82147298   0.20378394   0.28962123
  198 1     1      0.00000     20.59876      4.49569      6.09939   #    C6   0.73251372   0.19520703   0.29691227
  199 1     1      0.00000     16.06181      0.87903      5.81701   #    C7   0.57103785   0.02074378   0.28316633
  200 1     1      0.00000     15.42358      9.95742      6.11373   #    C8   0.54867452   0.46022722   0.29761036
  201 1     1      0.00000     16.05342      8.73489      5.81701   #    C9   0.57103782   0.40201189   0.28316634
  202 1     1      0.00000     17.32443      8.74892      5.21699   #   C10   0.61626082   0.40495387   0.25395768
  203 1     1      0.00000     17.95179      9.96012      4.92021   #   C11   0.63862846   0.46485540   0.23951083
  204 1     1      0.00000     17.33285      0.86771      5.21698   #   C12   0.61626082   0.02245534   0.25395763
  205 1     1      0.00000     16.05404      4.50292      1.90087   #   C13   0.57103784   0.21137783   0.09253225
  206 1     1      0.00000     15.59238      4.92728      0.64145   #   C14   0.55468041   0.23671884   0.03122521
  207 1     1      0.00000     16.06119      5.11099      9.73316   #   C15   0.57103784   0.21137783   0.47380041
  208 1     1      0.00000     16.99252      4.06237      9.82643   #   C16   0.60411575   0.16013341   0.47834095
  209 1     1      0.00000     17.44488      2.83949      0.80185   #   C17   0.62047637   0.13478753   0.03903315
  210 1     1      0.00000     16.98535      3.45233      1.96887   #   C18   0.60411580   0.16013342   0.09584241
  211 1     1      0.00000     16.05987      4.94277      8.25269   #   C19   0.57103678   0.20879165   0.40173256
  212 1     1      0.00000     16.05527      4.67116      3.38133   #   C20   0.57103549   0.21396452   0.16459987
  213 1     1      0.00000     16.05489      7.24584      5.76387   #   C21   0.57103539   0.32994410   0.28057943
  214 1     1      0.00000     16.06025      2.36807      5.87015   #   C22   0.57103684   0.09281129   0.28575303
  215 1     5      0.00000     22.32941      2.89543      7.55122   #    S1   0.79394905   0.11207124   0.36758604
  216 1     3      0.00000     26.65190      4.80320      5.82041   #    N1   0.94780486   0.21118271   0.28333159
  217 1     3      0.00000     19.52266      4.81081      5.81350   #    N2   0.69426627   0.21157794   0.28299545
  218 1     4      0.00000     17.16775      4.72877      3.87706   #    O1   0.61058357   0.21489254   0.18873165
  219 1     4      0.00000     17.17149      4.88756      7.75470   #    O2   0.61058511   0.20798860   0.37749106
  220 1     4      0.00000     17.16745      6.74732      5.74496   #    O3   0.61058346   0.30582074   0.27965905
  221 1     4      0.00000     17.17179      2.86901      5.88680   #    O4   0.61058519   0.11706041   0.28656361
  222 1     4      0.00000     14.94332      6.74490      5.74722   #    O5   0.53148591   0.30569495   0.27976876
  223 1     4      0.00000     14.94736      4.88516      7.75695   #    O6   0.53148756   0.20786359   0.37760073
  224 1     4      0.00000     14.94362      4.72636      3.87930   #    O7   0.53148602   0.21476751   0.18884054
  225 1     4      0.00000     14.94765      2.86661      5.88904   #    O8   0.53148763   0.11693537   0.28667255
  226 1     6      0.00000     14.60174      5.60280     16.08986   #   Zn1   0.51892830   0.21129503   0.78323834
  227 1     6      0.00000     17.53213      5.60598     16.08689   #   Zn2   0.62314283   0.21146032   0.78309403
  228 1     2      0.00000     24.75091      3.27383     18.20277   #    H1   0.87970259   0.09030153   0.88609301
  229 1     2      0.00000     23.12523      6.26028     15.49332   #    H2   0.82209771   0.24545213   0.75419923
  230 1     2      0.00000     14.45368     10.75381     16.84740   #    H4   0.51383172   0.45843456   0.82011459
  231 1     2      0.00000     17.84384      8.62183     15.24805   #    H6   0.63437239   0.36098954   0.74225978
  232 1     2      0.00000     18.94005     10.75860     14.72947   #    H7   0.67345689   0.46664740   0.71701582