Created by Ryther's code on 2025-07-29 22:46:53.573557, modified by xyan11@uic.edu. 

    544 atoms
    632 bonds
    1216 angles
    1232 dihedrals
    256 impropers

    5 atom types
    8 bond types
    15 angle types
    4 dihedral types
    2 improper types

0.00000000 38.48007934 xlo xhi
0.00000000 30.98066954 ylo yhi
0.00000000 20.45085761 zlo zhi
0.31660551 4.819e-05 2.51204298 xy xz yz 

Masses 

    1    12.0107  #   C
    2    1.00794  #   H
    3    14.0067  #   N
    4    15.9994  #   O
    5      65.38  #  Zn

Pair Coeffs

    1       0.10500      3.43085  #  C_R C_R
    2       0.04400      2.57113  #  H_ H_
    3       0.06900      3.26069  #  N_2 N_2
    4       0.06000      3.11815  #  O_2_M O_2_M
    5       0.12400      2.46155  #  Zn4+2 Zn4+2

Bond Coeffs

    1     103.61325      2.20128  #  N_2 Zn4+2 bond order=0.5
    2     104.44141      2.12294  #  O_2_M Zn4+2 bond order=0.5
    3      48.90184      1.84943  #  H_ Zn4+2 bond order=0.5
    4     357.44038      1.08142  #  C_R H_ bond order=1.0
    5     931.53598      1.20133  #  C_R N_2 bond order=3.0
    6     462.65505      1.37926  #  C_R C_R bond order=1.5
    7     391.66951      1.45800  #  C_R C_R bond order=1.0
    8     714.55744      1.26901  #  C_R O_2_M bond order=1.5

Angle Coeffs

    1  cosine/periodic        101.82219            1            4  #  N_2 Zn4+2 O_2_M
    2  cosine/periodic         37.39156            1            4  #  H_ Zn4+2 N_2
    3  cosine/periodic         36.20045            1            4  #  H_ Zn4+2 O_2_M
    4  cosine/periodic         97.36576            1            4  #  O_2_M Zn4+2 O_2_M
    5  cosine/periodic         14.11273            1            4  #  H_ Zn4+2 H_
    6  cosine/periodic         11.23300            1            1  #  Zn4+2 H_ Zn4+2
    7  cosine/periodic        179.74893           -1            3  #  C_R C_R N_2
    8  cosine/periodic        111.29751           -1            3  #  C_R C_R C_R
    9  cosine/periodic         57.28902           -1            3  #  C_R C_R H_
    10 cosine/periodic        102.18328           -1            3  #  C_R C_R C_R
    11 cosine/periodic         51.62857           -1            3  #  C_R C_R H_
    12 cosine/periodic        137.71425           -1            3  #  C_R C_R O_2_M
    13 cosine/periodic        206.77843           -1            3  #  O_2_M C_R O_2_M
    14 fourier                 84.89470      0.36401      0.41847      0.28800  #  C_R N_2 Zn4+2
    15 cosine/periodic         37.72922           -1            3  #  C_R O_2_M Zn4+2

Dihedral Coeffs

    1      27.96100           -1            2  #  X C_R N_2 X bond order=3.0
    2       6.73711           -1            2  #  X C_R C_R X bond order=1.5
    3       1.25000           -1            2  #  X C_R C_R X bond order=1.0
    4       6.73711           -1            2  #  X C_R O_2_M X bond order=1.5

Improper Coeffs

    1       2.00000      1.00000     -1.00000      0.00000            1  #  C_R X X X O_2 present=False
    2      16.66667      1.00000     -1.00000      0.00000            1  #  C_R X X X O_2 present=True

Atoms # a, b, c, alpha, beta, gamma: 38.4800793351, 30.9822872640, 20.6045610682, 82.9976242796, 89.9998659925, 89.4144888266 $$$atoms$$$

    1 1     5      0.00000     14.59212     15.33740      5.15221   #   Zn1   0.37530693   0.47463605   0.25193129
    2 1     5      0.00000     17.52252     15.33736      5.15217   #   Zn2   0.45146050   0.47463482   0.25192918
    3 1     2      0.00000      9.82693     14.39179      7.08732   #    H1   0.25178581   0.43644106   0.34655370
    4 1     2      0.00000      7.37423     14.40037      7.09929   #    H2   0.18804446   0.43667055   0.34713911
    5 1     2      0.00000      7.21594      0.78416      3.20497   #    H3   0.18742004   0.01260416   0.15671545
    6 1     2      0.00000      9.66863      0.79274      3.21694   #    H4   0.25115756   0.01283353   0.15730108
    7 1     2      0.00000      5.50037     13.34639      5.99194   #    H5   0.13959127   0.40704040   0.29299201
    8 1     2      0.00000      3.04767     13.35793      6.00110   #    H6   0.07584911   0.40737638   0.29344007
    9 1     2      0.00000      2.88936      1.82660      4.30315   #    H7   0.07474229   0.04189813   0.21041437
   10 1     2      0.00000      5.34206      1.83814      4.31232   #    H8   0.13847897   0.04223420   0.21086231
   11 1     2      0.00000     16.11076     14.80042      5.61701   #    H9   0.41493026   0.45546017   0.27465906
   12 1     2      0.00000     16.24894     11.21659      6.37322   #   H10   0.41949747   0.33678252   0.31163571
   13 1     2      0.00000     15.61885     10.63757      3.43481   #   H11   0.40318114   0.32974315   0.16795456
   14 1     2      0.00000     17.13255      9.20218      6.64143   #   H12   0.44300401   0.27069752   0.32475067
   15 1     2      0.00000     17.17572      6.83326      7.18619   #   H13   0.44477287   0.19207331   0.35138806
   16 1     2      0.00000     14.82393      5.98226      3.66295   #   H14   0.38376686   0.17857363   0.17911003
   17 1     2      0.00000     14.78075      8.35118      3.11820   #   H15   0.38199805   0.25719784   0.15247264
   18 1     2      0.00000     16.33763      4.54687      6.86957   #   H16   0.42358986   0.11952797   0.33590610
   19 1     2      0.00000     15.70753      3.96785      3.93117   #   H17   0.40727312   0.11248853   0.19222510
   20 1     2      0.00000     16.00400     15.87436      4.68738   #   H18   0.41184019   0.49381093   0.22920189
   21 1     2      0.00000     14.72256      1.79814     10.10239   #   H20   0.38245359   0.01798650   0.49398380
   22 1     2      0.00000     17.35997     14.24021      8.32516   #   H22   0.44763091   0.42664046   0.40708143
   23 1     2      0.00000     18.16379     12.34060      0.33044   #   H23   0.46876424   0.39702215   0.01615763
   24 1     2      0.00000     17.35996     13.50492      2.33907   #   H24   0.44763095   0.42664045   0.11437518
   25 1     1      0.00000     11.43496     15.33743      5.15213   #    C1   0.29326010   0.47463725   0.25192743
   26 1     1      0.00000      9.99545     15.33743      5.15213   #    C2   0.25585108   0.47463729   0.25192736
   27 1     1      0.00000      9.29370     14.80397      6.23895   #    C3   0.23779129   0.45310885   0.30507053
   28 1     1      0.00000      7.89551     14.80293      6.23989   #    C4   0.20145622   0.45307182   0.30511628
   29 1     1      0.00000      7.18002     15.33743      5.15213   #    C5   0.18268497   0.47463732   0.25192724
   30 1     1      0.00000      7.89551     15.87194      4.06437   #    C6   0.20110155   0.49620288   0.19873829
   31 1     1      0.00000      9.29370     15.87090      4.06531   #    C7   0.23743720   0.49616577   0.19878412
   32 1     1      0.00000      5.69459     15.33743      5.15213   #    C8   0.14408242   0.47463729   0.25192720
   33 1     1      0.00000      4.97909     14.22462      5.63229   #    C9   0.12579969   0.43681385   0.27540592
   34 1     1      0.00000      3.58091     14.22560      5.63130   #   C10   0.08946405   0.43684955   0.27535787
   35 1     1      0.00000      2.87915     15.33743      5.15213   #   C11   0.07091628   0.47463725   0.25192723
   36 1     1      0.00000      1.43965     15.33743      5.15213   #   C12   0.03350726   0.47463721   0.25192736
   37 1     1      0.00000      3.42260      0.95893      4.67295   #   C13   0.08884226   0.01242497   0.22849657
   38 1     1      0.00000      4.82079      0.95991      4.67197   #   C14   0.12517731   0.01246073   0.22844842
   39 1     1      0.00000     16.05727     11.41339      5.32787   #   C15   0.41443021   0.34727941   0.26052069
   40 1     1      0.00000     15.86979     10.40550      4.46367   #   C16   0.40979772   0.31817297   0.21826330
   41 1     1      0.00000     15.93010      8.97177      4.84228   #   C17   0.41175791   0.27039382   0.23677655
   42 1     1      0.00000     16.60860      8.51776      5.98925   #   C18   0.42954848   0.25119138   0.29286064
   43 1     1      0.00000     16.64597      7.15482      6.29742   #   C19   0.43089147   0.20597646   0.30792947
   44 1     1      0.00000     16.02638      6.21267      5.46210   #   C20   0.41501298   0.17887729   0.26708415
   45 1     1      0.00000     15.34787      6.66668      4.31513   #   C21   0.39722244   0.19807974   0.21100007
   46 1     1      0.00000     15.31051      8.02962      4.00696   #   C22   0.39587941   0.24329465   0.19593124
   47 1     1      0.00000     16.08668      4.77894      5.84071   #   C23   0.41697320   0.13109815   0.28559741
   48 1     1      0.00000     15.89920      3.77105      4.97651   #   C24   0.41234053   0.10199168   0.24334007
   49 1     1      0.00000     16.05738     14.85851      1.25356   #   C25   0.41338538   0.47463554   0.06129630
   50 1     1      0.00000     15.59746     16.48262     10.20138   #   C26   0.40129334   0.49158253   0.49882385
   51 1     1      0.00000     16.05740     15.81627      9.05082   #   C27   0.41338538   0.47463554   0.44256446
   52 1     1      0.00000     16.98748     14.77188      9.19188   #   C28   0.43783782   0.44036545   0.44946166
   53 1     1      0.00000     17.44748     13.14612      0.23149   #   C29   0.44993222   0.42341519   0.01131949
   54 1     1      0.00000     16.98746     13.81103      1.36945   #   C30   0.43783786   0.44036545   0.06696312
   55 1     1      0.00000     16.05736     15.58200      7.57936   #   C31   0.41339877   0.47290780   0.37061315
   56 1     1      0.00000     16.05732     15.09279      2.72502   #   C32   0.41336948   0.47636362   0.13324735
   57 1     1      0.00000     15.89909      2.28111      4.99002   #   C33   0.41273375   0.05384564   0.24400067
   58 1     1      0.00000     16.05729     12.90332      5.31436   #   C34   0.41403449   0.39542526   0.25985990
   59 1     3      0.00000     12.59221     15.33743      5.15213   #    N1   0.32333429   0.47463722   0.25192747
   60 1     3      0.00000      0.28239     15.33743      5.15213   #    N2   0.00343310   0.47463720   0.25192746
   61 1     4      0.00000     17.16937     15.17134      3.21884   #    O1   0.44226404   0.47694123   0.15739411
   62 1     4      0.00000     17.16941     15.50340      7.08550   #    O2   0.44230301   0.47232894   0.34646463
   63 1     4      0.00000     17.01112      1.78108      4.99459   #    O3   0.44176560   0.03768726   0.24422412
   64 1     4      0.00000     17.16936     13.40333      5.30975   #    O4   0.44280143   0.41158290   0.25963456
   65 1     4      0.00000     14.78699      1.78110      4.99463   #    O5   0.38396598   0.03768798   0.24422591
   66 1     4      0.00000     14.94528     15.50344      7.08553   #    O6   0.38450338   0.47233017   0.34646634
   67 1     4      0.00000     14.94523     15.17138      3.21886   #    O7   0.38446441   0.47694244   0.15739505
   68 1     4      0.00000     14.94522     13.40337      5.30977   #    O8   0.38500179   0.41158412   0.25963555
   69 1     5      0.00000     14.59215     16.59343     15.37764   #   Zn1   0.37530693   0.47463605   0.75193129
   70 1     5      0.00000     17.52254     16.59338     15.37760   #   Zn2   0.45146050   0.47463482   0.75192918
   71 1     2      0.00000      9.82696     15.64782     17.31275   #    H1   0.25178581   0.43644106   0.84655370
   72 1     2      0.00000      7.37426     15.65640     17.32472   #    H2   0.18804446   0.43667055   0.84713911
   73 1     2      0.00000      7.21596      2.04018     13.43039   #    H3   0.18742004   0.01260416   0.65671545
   74 1     2      0.00000      9.66866      2.04876     13.44237   #    H4   0.25115756   0.01283353   0.65730108
   75 1     2      0.00000      5.50039     14.60241     16.21737   #    H5   0.13959127   0.40704040   0.79299201
   76 1     2      0.00000      3.04770     14.61395     16.22653   #    H6   0.07584911   0.40737638   0.79344007
   77 1     2      0.00000      2.88939      3.08262     14.52858   #    H7   0.07474229   0.04189813   0.71041437
   78 1     2      0.00000      5.34209      3.09416     14.53774   #    H8   0.13847897   0.04223420   0.71086231
   79 1     2      0.00000     16.11079     16.05644     15.84244   #    H9   0.41493026   0.45546017   0.77465906
   80 1     2      0.00000     16.24896     12.47261     16.59865   #   H10   0.41949747   0.33678252   0.81163571
   81 1     2      0.00000     15.61887     11.89359     13.66024   #   H11   0.40318114   0.32974315   0.66795456
   82 1     2      0.00000     17.13257     10.45820     16.86686   #   H12   0.44300401   0.27069752   0.82475067
   83 1     2      0.00000     17.17575      8.08928     17.41162   #   H13   0.44477287   0.19207331   0.85138806
   84 1     2      0.00000     14.82395      7.23828     13.88838   #   H14   0.38376686   0.17857363   0.67911003
   85 1     2      0.00000     14.78078      9.60720     13.34363   #   H15   0.38199805   0.25719784   0.65247264
   86 1     2      0.00000     16.33765      5.80289     17.09500   #   H16   0.42358986   0.11952797   0.83590610
   87 1     2      0.00000     15.70755      5.22387     14.15660   #   H17   0.40727312   0.11248853   0.69222510
   88 1     2      0.00000     16.00402     17.13038     14.91280   #   H18   0.41184019   0.49381093   0.72920189
   89 1     2      0.00000     14.72259      3.05416     20.32782   #   H20   0.38245359   0.01798650   0.99398380
   90 1     2      0.00000     17.35999     15.49623     18.55059   #   H22   0.44763091   0.42664046   0.90708143
   91 1     2      0.00000     18.16381     13.59662     10.55587   #   H23   0.46876424   0.39702215   0.51615763
   92 1     2      0.00000     17.35998     14.76094     12.56450   #   H24   0.44763095   0.42664045   0.61437518
   93 1     1      0.00000     11.43498     16.59345     15.37756   #    C1   0.29326010   0.47463725   0.75192743
   94 1     1      0.00000      9.99548     16.59345     15.37756   #    C2   0.25585108   0.47463729   0.75192736
   95 1     1      0.00000      9.29372     16.05999     16.46438   #    C3   0.23779129   0.45310885   0.80507053
   96 1     1      0.00000      7.89554     16.05895     16.46532   #    C4   0.20145622   0.45307182   0.80511628
   97 1     1      0.00000      7.18004     16.59346     15.37756   #    C5   0.18268497   0.47463732   0.75192724
   98 1     1      0.00000      7.89554     17.12796     14.28980   #    C6   0.20110155   0.49620288   0.69873829
   99 1     1      0.00000      9.29372     17.12692     14.29073   #    C7   0.23743720   0.49616577   0.69878412
  100 1     1      0.00000      5.69461     16.59345     15.37756   #    C8   0.14408242   0.47463729   0.75192720
  101 1     1      0.00000      4.97912     15.48064     15.85772   #    C9   0.12579969   0.43681385   0.77540592
  102 1     1      0.00000      3.58093     15.48162     15.85673   #   C10   0.08946405   0.43684955   0.77535787
  103 1     1      0.00000      2.87917     16.59345     15.37756   #   C11   0.07091628   0.47463725   0.75192723
  104 1     1      0.00000      1.43967     16.59345     15.37756   #   C12   0.03350726   0.47463721   0.75192736
  105 1     1      0.00000      3.42263      2.21495     14.89838   #   C13   0.08884226   0.01242497   0.72849657
  106 1     1      0.00000      4.82081      2.21594     14.89739   #   C14   0.12517731   0.01246073   0.72844842
  107 1     1      0.00000     16.05729     12.66941     15.55330   #   C15   0.41443021   0.34727941   0.76052069
  108 1     1      0.00000     15.86982     11.66152     14.68910   #   C16   0.40979772   0.31817297   0.71826330
  109 1     1      0.00000     15.93012     10.22780     15.06771   #   C17   0.41175791   0.27039382   0.73677655
  110 1     1      0.00000     16.60863      9.77378     16.21468   #   C18   0.42954848   0.25119138   0.79286064
  111 1     1      0.00000     16.64599      8.41084     16.52285   #   C19   0.43089147   0.20597646   0.80792947
  112 1     1      0.00000     16.02640      7.46869     15.68753   #   C20   0.41501298   0.17887729   0.76708415
  113 1     1      0.00000     15.34790      7.92271     14.54056   #   C21   0.39722244   0.19807974   0.71100007
  114 1     1      0.00000     15.31053      9.28564     14.23239   #   C22   0.39587941   0.24329465   0.69593124
  115 1     1      0.00000     16.08671      6.03496     16.06614   #   C23   0.41697320   0.13109815   0.78559741
  116 1     1      0.00000     15.89922      5.02707     15.20194   #   C24   0.41234053   0.10199168   0.74334007
  117 1     1      0.00000     16.05740     16.11453     11.47899   #   C25   0.41338538   0.47463554   0.56129630
  118 1     1      0.00000     15.59749     17.73864     20.42680   #   C26   0.40129334   0.49158253   0.99882385
  119 1     1      0.00000     16.05742     17.07229     19.27625   #   C27   0.41338538   0.47463554   0.94256446
  120 1     1      0.00000     16.98750     16.02790     19.41731   #   C28   0.43783782   0.44036545   0.94946166
  121 1     1      0.00000     17.44751     14.40214     10.45692   #   C29   0.44993222   0.42341519   0.51131949
  122 1     1      0.00000     16.98749     15.06705     11.59488   #   C30   0.43783786   0.44036545   0.56696312
  123 1     1      0.00000     16.05738     16.83802     17.80479   #   C31   0.41339877   0.47290780   0.87061315
  124 1     1      0.00000     16.05734     16.34881     12.95045   #   C32   0.41336948   0.47636362   0.63324735
  125 1     1      0.00000     15.89911      3.53714     15.21545   #   C33   0.41273375   0.05384564   0.74400067
  126 1     1      0.00000     16.05731     14.15934     15.53979   #   C34   0.41403449   0.39542526   0.75985990
  127 1     3      0.00000     12.59224     16.59345     15.37756   #    N1   0.32333429   0.47463722   0.75192747
  128 1     3      0.00000      0.28242     16.59345     15.37756   #    N2   0.00343310   0.47463720   0.75192746
  129 1     4      0.00000     17.16939     16.42736     13.44427   #    O1   0.44226404   0.47694123   0.65739411
  130 1     4      0.00000     17.16944     16.75942     17.31093   #    O2   0.44230301   0.47232894   0.84646463
  131 1     4      0.00000     17.01114      3.03710     15.22002   #    O3   0.44176560   0.03768726   0.74422412
  132 1     4      0.00000     17.16938     14.65935     15.53518   #    O4   0.44280143   0.41158290   0.75963456
  133 1     4      0.00000     14.78701      3.03713     15.22006   #    O5   0.38396598   0.03768798   0.74422591
  134 1     4      0.00000     14.94530     16.75946     17.31096   #    O6   0.38450338   0.47233017   0.84646634
  135 1     4      0.00000     14.94526     16.42740     13.44429   #    O7   0.38446441   0.47694244   0.65739505
  136 1     4      0.00000     14.94525     14.65939     15.53520   #    O8   0.38500179   0.41158412   0.75963555
  137 1     5      0.00000     14.75043     30.82774      5.15221   #   Zn1   0.37530693   0.97463605   0.25193129
  138 1     5      0.00000     17.68082     30.82770      5.15217   #   Zn2   0.45146050   0.97463482   0.25192918
  139 1     2      0.00000      9.98524     29.88213      7.08732   #    H1   0.25178581   0.93644106   0.34655370
  140 1     2      0.00000      7.53254     29.89071      7.09929   #    H2   0.18804446   0.93667055   0.34713911
  141 1     2      0.00000      7.37424     16.27450      3.20497   #    H3   0.18742004   0.51260416   0.15671545
  142 1     2      0.00000      9.82694     16.28307      3.21694   #    H4   0.25115756   0.51283353   0.15730108
  143 1     2      0.00000      5.65867     28.83673      5.99194   #    H5   0.13959127   0.90704040   0.29299201
  144 1     2      0.00000      3.20597     28.84826      6.00110   #    H6   0.07584911   0.90737638   0.29344007
  145 1     2      0.00000      3.04767     17.31694      4.30315   #    H7   0.07474229   0.54189813   0.21041437
  146 1     2      0.00000      5.50037     17.32847      4.31232   #    H8   0.13847897   0.54223420   0.21086231
  147 1     2      0.00000     16.26907     30.29075      5.61701   #    H9   0.41493026   0.95546017   0.27465906
  148 1     2      0.00000     16.40724     26.70692      6.37322   #   H10   0.41949747   0.83678252   0.31163571
  149 1     2      0.00000     15.77715     26.12791      3.43481   #   H11   0.40318114   0.82974315   0.16795456
  150 1     2      0.00000     17.29085     24.69251      6.64143   #   H12   0.44300401   0.77069752   0.32475067
  151 1     2      0.00000     17.33403     22.32360      7.18619   #   H13   0.44477287   0.69207331   0.35138806
  152 1     2      0.00000     14.98223     21.47260      3.66295   #   H14   0.38376686   0.67857363   0.17911003
  153 1     2      0.00000     14.93906     23.84151      3.11820   #   H15   0.38199805   0.75719784   0.15247264
  154 1     2      0.00000     16.49593     20.03720      6.86957   #   H16   0.42358986   0.61952797   0.33590610
  155 1     2      0.00000     15.86583     19.45818      3.93117   #   H17   0.40727312   0.61248853   0.19222510
  156 1     2      0.00000     16.16230     31.36469      4.68738   #   H18   0.41184019   0.99381093   0.22920189
  157 1     2      0.00000     14.88087     17.28848     10.10239   #   H20   0.38245359   0.51798650   0.49398380
  158 1     2      0.00000     17.51827     29.73055      8.32516   #   H22   0.44763091   0.92664046   0.40708143
  159 1     2      0.00000     18.32209     27.83094      0.33044   #   H23   0.46876424   0.89702215   0.01615763
  160 1     2      0.00000     17.51826     28.99526      2.33907   #   H24   0.44763095   0.92664045   0.11437518
  161 1     1      0.00000     11.59326     30.82777      5.15213   #    C1   0.29326010   0.97463725   0.25192743
  162 1     1      0.00000     10.15376     30.82777      5.15213   #    C2   0.25585108   0.97463729   0.25192736
  163 1     1      0.00000      9.45200     30.29430      6.23895   #    C3   0.23779129   0.95310885   0.30507053
  164 1     1      0.00000      8.05381     30.29327      6.23989   #    C4   0.20145622   0.95307182   0.30511628
  165 1     1      0.00000      7.33832     30.82777      5.15213   #    C5   0.18268497   0.97463732   0.25192724
  166 1     1      0.00000      8.05382     31.36227      4.06437   #    C6   0.20110155   0.99620288   0.19873829
  167 1     1      0.00000      9.45200     31.36124      4.06531   #    C7   0.23743720   0.99616577   0.19878412
  168 1     1      0.00000      5.85289     30.82777      5.15213   #    C8   0.14408242   0.97463729   0.25192720
  169 1     1      0.00000      5.13740     29.71495      5.63229   #    C9   0.12579969   0.93681385   0.27540592
  170 1     1      0.00000      3.73921     29.71594      5.63130   #   C10   0.08946405   0.93684955   0.27535787
  171 1     1      0.00000      3.03745     30.82777      5.15213   #   C11   0.07091628   0.97463725   0.25192723
  172 1     1      0.00000      1.59795     30.82777      5.15213   #   C12   0.03350726   0.97463721   0.25192736
  173 1     1      0.00000      3.58090     16.44926      4.67295   #   C13   0.08884226   0.51242497   0.22849657
  174 1     1      0.00000      4.97909     16.45025      4.67197   #   C14   0.12517731   0.51246073   0.22844842
  175 1     1      0.00000     16.21557     26.90372      5.32787   #   C15   0.41443021   0.84727941   0.26052069
  176 1     1      0.00000     16.02810     25.89583      4.46367   #   C16   0.40979772   0.81817297   0.21826330
  177 1     1      0.00000     16.08840     24.46211      4.84228   #   C17   0.41175791   0.77039382   0.23677655
  178 1     1      0.00000     16.76691     24.00809      5.98925   #   C18   0.42954848   0.75119138   0.29286064
  179 1     1      0.00000     16.80427     22.64516      6.29742   #   C19   0.43089147   0.70597646   0.30792947
  180 1     1      0.00000     16.18468     21.70300      5.46210   #   C20   0.41501298   0.67887729   0.26708415
  181 1     1      0.00000     15.50618     22.15702      4.31513   #   C21   0.39722244   0.69807974   0.21100007
  182 1     1      0.00000     15.46881     23.51995      4.00696   #   C22   0.39587941   0.74329465   0.19593124
  183 1     1      0.00000     16.24498     20.26928      5.84071   #   C23   0.41697320   0.63109815   0.28559741
  184 1     1      0.00000     16.05750     19.26139      4.97651   #   C24   0.41234053   0.60199168   0.24334007
  185 1     1      0.00000     16.21568     30.34884      1.25356   #   C25   0.41338538   0.97463554   0.06129630
  186 1     1      0.00000     15.75576     31.97296     10.20138   #   C26   0.40129334   0.99158253   0.49882385
  187 1     1      0.00000     16.21570     31.30660      9.05082   #   C27   0.41338538   0.97463554   0.44256446
  188 1     1      0.00000     17.14578     30.26222      9.19188   #   C28   0.43783782   0.94036545   0.44946166
  189 1     1      0.00000     17.60579     28.63646      0.23149   #   C29   0.44993222   0.92341519   0.01131949
  190 1     1      0.00000     17.14576     29.30137      1.36945   #   C30   0.43783786   0.94036545   0.06696312
  191 1     1      0.00000     16.21566     31.07233      7.57936   #   C31   0.41339877   0.97290780   0.37061315
  192 1     1      0.00000     16.21562     30.58312      2.72502   #   C32   0.41336948   0.97636362   0.13324735
  193 1     1      0.00000     16.05739     17.77145      4.99002   #   C33   0.41273375   0.55384564   0.24400067
  194 1     1      0.00000     16.21559     28.39365      5.31436   #   C34   0.41403449   0.89542526   0.25985990
  195 1     3      0.00000     12.75052     30.82777      5.15213   #    N1   0.32333429   0.97463722   0.25192747
  196 1     3      0.00000      0.44069     30.82777      5.15213   #    N2   0.00343310   0.97463720   0.25192746
  197 1     4      0.00000     17.32767     30.66167      3.21884   #    O1   0.44226404   0.97694123   0.15739411
  198 1     4      0.00000     17.32772     30.99374      7.08550   #    O2   0.44230301   0.97232894   0.34646463
  199 1     4      0.00000     17.16942     17.27141      4.99459   #    O3   0.44176560   0.53768726   0.24422412
  200 1     4      0.00000     17.32766     28.89366      5.30975   #    O4   0.44280143   0.91158290   0.25963456
  201 1     4      0.00000     14.94529     17.27144      4.99463   #    O5   0.38396598   0.53768798   0.24422591
  202 1     4      0.00000     15.10358     30.99378      7.08553   #    O6   0.38450338   0.97233017   0.34646634
  203 1     4      0.00000     15.10353     30.66171      3.21886   #    O7   0.38446441   0.97694244   0.15739505
  204 1     4      0.00000     15.10352     28.89370      5.30977   #    O8   0.38500179   0.91158412   0.25963555
  205 1     5      0.00000     14.75045     32.08376     15.37764   #   Zn1   0.37530693   0.97463605   0.75193129
  206 1     5      0.00000     17.68085     32.08372     15.37760   #   Zn2   0.45146050   0.97463482   0.75192918
  207 1     2      0.00000      9.98526     31.13815     17.31275   #    H1   0.25178581   0.93644106   0.84655370
  208 1     2      0.00000      7.53256     31.14673     17.32472   #    H2   0.18804446   0.93667055   0.84713911
  209 1     2      0.00000      7.37426     17.53052     13.43039   #    H3   0.18742004   0.51260416   0.65671545
  210 1     2      0.00000      9.82696     17.53909     13.44237   #    H4   0.25115756   0.51283353   0.65730108
  211 1     2      0.00000      5.65870     30.09275     16.21737   #    H5   0.13959127   0.90704040   0.79299201
  212 1     2      0.00000      3.20600     30.10428     16.22653   #    H6   0.07584911   0.90737638   0.79344007
  213 1     2      0.00000      3.04769     18.57296     14.52858   #    H7   0.07474229   0.54189813   0.71041437
  214 1     2      0.00000      5.50039     18.58450     14.53774   #    H8   0.13847897   0.54223420   0.71086231
  215 1     2      0.00000     16.26909     31.54677     15.84244   #    H9   0.41493026   0.95546017   0.77465906
  216 1     2      0.00000     16.40726     27.96295     16.59865   #   H10   0.41949747   0.83678252   0.81163571
  217 1     2      0.00000     15.77718     27.38393     13.66024   #   H11   0.40318114   0.82974315   0.66795456
  218 1     2      0.00000     17.29088     25.94853     16.86686   #   H12   0.44300401   0.77069752   0.82475067
  219 1     2      0.00000     17.33405     23.57962     17.41162   #   H13   0.44477287   0.69207331   0.85138806
  220 1     2      0.00000     14.98225     22.72862     13.88838   #   H14   0.38376686   0.67857363   0.67911003
  221 1     2      0.00000     14.93908     25.09754     13.34363   #   H15   0.38199805   0.75719784   0.65247264
  222 1     2      0.00000     16.49596     21.29322     17.09500   #   H16   0.42358986   0.61952797   0.83590610
  223 1     2      0.00000     15.86585     20.71420     14.15660   #   H17   0.40727312   0.61248853   0.69222510
  224 1     2      0.00000     16.16232     32.62071     14.91280   #   H18   0.41184019   0.99381093   0.72920189
  225 1     2      0.00000     14.88089     18.54450     20.32782   #   H20   0.38245359   0.51798650   0.99398380
  226 1     2      0.00000     17.51830     30.98657     18.55059   #   H22   0.44763091   0.92664046   0.90708143
  227 1     2      0.00000     18.32211     29.08696     10.55587   #   H23   0.46876424   0.89702215   0.51615763
  228 1     2      0.00000     17.51828     30.25128     12.56450   #   H24   0.44763095   0.92664045   0.61437518
  229 1     1      0.00000     11.59328     32.08379     15.37756   #    C1   0.29326010   0.97463725   0.75192743
  230 1     1      0.00000     10.15378     32.08379     15.37756   #    C2   0.25585108   0.97463729   0.75192736
  231 1     1      0.00000      9.45203     31.55032     16.46438   #    C3   0.23779129   0.95310885   0.80507053
  232 1     1      0.00000      8.05384     31.54929     16.46532   #    C4   0.20145622   0.95307182   0.80511628