ITEM: TIMESTEP
0
ITEM: NUMBER OF ATOMS
544
ITEM: BOX BOUNDS xy xz yz pp pp pp
0.0000000000000000e+00 3.8796733040000007e+01 3.1660550999999998e-01
0.0000000000000000e+00 3.3492712519999998e+01 4.8189999999999998e-05
0.0000000000000000e+00 2.0450857610000000e+01 2.5120429799999999e+00
ITEM: ATOMS id type element x y z q
5 2 H 7.21594 0.784439 3.2051 0
9 2 H 2.88935 1.8266 4.30316 0
10 2 H 5.34206 1.83802 4.31203 0
37 1 C 3.42257 0.958937 4.67297 0
38 1 C 4.82078 0.96011 4.67244 0
6 2 H 9.66864 0.792731 3.21694 0
16 2 H 14.8244 5.98219 3.66266 0
17 2 H 14.7808 8.35118 3.11819 0
21 2 H 14.7228 1.79785 10.1024 0
45 1 C 15.3475 6.66672 4.31536 0
46 1 C 15.31 8.02967 4.00725 0
65 4 O 14.7649 1.76123 4.99702 0
15 2 H 17.1757 6.83326 7.1862 0
18 2 H 16.3373 4.54521 6.86906 0
19 2 H 15.7072 3.9745 3.93222 0
43 1 C 16.6464 7.15478 6.29713 0
44 1 C 16.0258 6.21273 5.46261 0
47 1 C 16.0917 4.78284 5.85908 0
48 1 C 15.8911 3.75489 4.93959 0
57 1 C 15.9056 2.44354 5.01801 0
63 4 O 17.0332 1.76139 4.99792 0
281 2 H 22.1294 1.8266 4.30316 0
309 1 C 22.6626 0.958937 4.67297 0
277 2 H 26.456 0.784439 3.2051 0
278 2 H 28.9087 0.792731 3.21694 0
282 2 H 24.5821 1.83802 4.31203 0
310 1 C 24.0608 0.96011 4.67244 0
287 2 H 36.4158 6.83326 7.1862 0
288 2 H 34.0644 5.98219 3.66266 0
289 2 H 34.0208 8.35118 3.11819 0
290 2 H 35.5773 4.54521 6.86906 0
291 2 H 34.9472 3.9745 3.93222 0
293 2 H 33.9628 1.79785 10.1024 0
315 1 C 35.8865 7.15478 6.29713 0
316 1 C 35.2659 6.21273 5.46261 0
317 1 C 34.5876 6.66672 4.31536 0
318 1 C 34.5501 8.02967 4.00725 0
319 1 C 35.3317 4.78284 5.85908 0
320 1 C 35.1311 3.75489 4.93959 0
329 1 C 35.1456 2.44354 5.01801 0
335 4 O 36.2732 1.76139 4.99792 0
337 4 O 34.0049 1.76123 4.99702 0
4 2 H 7.37423 14.4001 7.09916 0
7 2 H 5.50037 13.3465 5.99223 0
8 2 H 3.04766 13.3579 6.00109 0
29 1 C 7.18002 15.3374 5.15213 0
32 1 C 5.69459 15.3374 5.15213 0
33 1 C 4.97908 14.2244 5.63182 0
34 1 C 3.58087 14.2256 5.63128 0
35 1 C 2.86329 15.3374 5.15218 0
36 1 C 1.48029 15.3374 5.15211 0
60 3 N 0.269918 15.3373 5.15211 0
141 2 H 7.37424 16.2748 3.2051 0
173 1 C 3.58087 16.4493 4.67297 0
174 1 C 4.97908 16.4504 4.67244 0
1 5 Zn 14.634 15.3366 5.15289 0
3 2 H 9.82694 14.3918 7.08732 0
25 1 C 11.3943 15.3374 5.15216 0
26 1 C 10.0113 15.3375 5.15218 0
27 1 C 9.29373 14.804 6.23897 0
28 1 C 7.89552 14.8034 6.24011 0
30 1 C 7.89552 15.8715 4.06415 0
31 1 C 9.29373 15.8709 4.06529 0
59 3 N 12.6047 15.3374 5.15194 0
66 4 O 14.9218 15.5047 7.06541 0
67 4 O 14.9217 15.1732 3.2384 0
68 4 O 14.9232 13.423 5.30644 0
142 2 H 9.82695 16.2831 3.21694 0
2 5 Zn 17.4807 15.3382 5.15162 0
11 2 H 16.1109 14.8933 5.59585 0
12 2 H 16.2493 11.21 6.37217 0
13 2 H 15.6192 10.6393 3.43531 0
14 2 H 17.1321 9.20225 6.64172 0
20 2 H 16.0039 15.7814 4.70854 0
22 2 H 17.4026 14.1319 8.41739 0
23 2 H 18.1638 12.3406 0.330443 0
24 2 H 17.3829 13.4417 2.31203 0
39 1 C 16.0654 11.4296 5.36478 0
40 1 C 15.8648 10.4016 4.44528 0
41 1 C 15.9307 8.97171 4.84176 0
42 1 C 16.6089 8.51772 5.98902 0
49 1 C 16.0892 14.8319 1.26867 0
50 1 C 15.5769 16.4996 10.1994 0
51 1 C 16.0866 15.7826 9.0444 0
52 1 C 16.9845 14.7598 9.24956 0
53 1 C 17.4476 13.1459 0.231597 0
54 1 C 16.985 13.7916 1.33012 0
55 1 C 16.0054 15.6534 7.65287 0
56 1 C 16.0189 15.1165 2.63243 0
58 1 C 16.0508 12.7409 5.28639 0
61 4 O 17.1902 15.2304 3.28577 0
62 4 O 17.1849 15.593 6.94785 0
64 4 O 17.1915 13.4232 5.3074 0
280 2 H 22.2877 13.3579 6.00109 0
306 1 C 22.8209 14.2256 5.63128 0
307 1 C 22.1033 15.3374 5.15218 0
308 1 C 20.7203 15.3374 5.15211 0
332 3 N 19.51 15.3373 5.15211 0
445 1 C 22.8209 16.4493 4.67297 0
275 2 H 29.067 14.3918 7.08732 0
276 2 H 26.6143 14.4001 7.09916 0
279 2 H 24.7404 13.3465 5.99223 0
297 1 C 30.6343 15.3374 5.15216 0
298 1 C 29.2513 15.3375 5.15218 0
299 1 C 28.5338 14.804 6.23897 0
300 1 C 27.1356 14.8034 6.24011 0
301 1 C 26.4201 15.3374 5.15213 0
302 1 C 27.1356 15.8715 4.06415 0
303 1 C 28.5338 15.8709 4.06529 0
304 1 C 24.9346 15.3374 5.15213 0
305 1 C 24.2191 14.2244 5.63182 0
413 2 H 26.6143 16.2748 3.2051 0
414 2 H 29.067 16.2831 3.21694 0
446 1 C 24.2191 16.4504 4.67244 0
273 5 Zn 33.874 15.3366 5.15289 0
274 5 Zn 36.7207 15.3382 5.15162 0
283 2 H 35.3509 14.8933 5.59585 0
284 2 H 35.4893 11.21 6.37217 0
285 2 H 34.8593 10.6393 3.43531 0
286 2 H 36.3721 9.20225 6.64172 0
292 2 H 35.244 15.7814 4.70854 0
294 2 H 36.6427 14.1319 8.41739 0
295 2 H 37.4038 12.3406 0.330443 0
296 2 H 36.6229 13.4417 2.31203 0
311 1 C 35.3054 11.4296 5.36478 0
312 1 C 35.1048 10.4016 4.44528 0
313 1 C 35.1707 8.97171 4.84176 0
314 1 C 35.849 8.51772 5.98902 0
321 1 C 35.3292 14.8319 1.26867 0
322 1 C 34.817 16.4996 10.1994 0
323 1 C 35.3267 15.7826 9.0444 0
324 1 C 36.2246 14.7598 9.24956 0
325 1 C 36.6877 13.1459 0.231597 0
326 1 C 36.2251 13.7916 1.33012 0
327 1 C 35.2454 15.6534 7.65287 0
328 1 C 35.259 15.1165 2.63243 0
330 1 C 35.2909 12.7409 5.28639 0
331 3 N 31.8447 15.3374 5.15194 0
333 4 O 36.4302 15.2304 3.28578 0
334 4 O 36.4249 15.593 6.94785 0
336 4 O 36.4315 13.4232 5.3074 0
338 4 O 34.1618 15.5047 7.06541 0
339 4 O 34.1618 15.1732 3.2384 0
340 4 O 34.1633 13.423 5.30644 0
145 2 H 3.04766 17.3169 4.30316 0
146 2 H 5.50037 17.3284 4.31203 0
152 2 H 14.9827 21.4725 3.66266 0
153 2 H 14.9391 23.8415 3.11819 0
157 2 H 14.8811 17.2882 10.1024 0
181 1 C 15.5058 22.1571 4.31536 0
182 1 C 15.4683 23.52 4.00725 0
201 4 O 14.9232 17.2516 4.99702 0
150 2 H 17.2904 24.6926 6.64172 0
151 2 H 17.334 22.3236 7.1862 0
154 2 H 16.4956 20.0355 6.86906 0
155 2 H 15.8655 19.4648 3.93222 0
177 1 C 16.089 24.462 4.84176 0
178 1 C 16.7672 24.0081 5.98902 0
179 1 C 16.8047 22.6451 6.29713 0
180 1 C 16.1841 21.7031 5.46261 0
183 1 C 16.25 20.2732 5.85908 0
184 1 C 16.0494 19.2452 4.93959 0
193 1 C 16.0639 17.9339 5.01801 0
199 4 O 17.1915 17.2517 4.99792 0
417 2 H 22.2877 17.3169 4.30316 0
418 2 H 24.7404 17.3284 4.31203 0
422 2 H 36.5304 24.6926 6.64172 0
423 2 H 36.5741 22.3236 7.1862 0
424 2 H 34.2227 21.4725 3.66266 0
425 2 H 34.1791 23.8415 3.11819 0
426 2 H 35.7356 20.0355 6.86906 0
427 2 H 35.1055 19.4648 3.93222 0
429 2 H 34.1211 17.2882 10.1024 0
449 1 C 35.329 24.462 4.84176 0
450 1 C 36.0073 24.0081 5.98902 0
451 1 C 36.0448 22.6451 6.29713 0
452 1 C 35.4242 21.7031 5.46261 0
453 1 C 34.7459 22.1571 4.31536 0
454 1 C 34.7084 23.52 4.00725 0
455 1 C 35.49 20.2732 5.85908 0
456 1 C 35.2894 19.2452 4.93959 0
465 1 C 35.3039 17.9339 5.01801 0
471 4 O 36.4315 17.2517 4.99792 0
473 4 O 34.1632 17.2516 4.99702 0
140 2 H 7.53254 29.8904 7.09916 0
143 2 H 5.65867 28.8368 5.99223 0
144 2 H 3.20596 28.8483 6.00109 0
165 1 C 7.33832 30.8278 5.15213 0
168 1 C 5.85289 30.8278 5.15213 0
169 1 C 5.13738 29.7148 5.63182 0
170 1 C 3.73917 29.7159 5.63128 0
171 1 C 3.02159 30.8278 5.15218 0
172 1 C 1.63859 30.8278 5.15211 0
196 3 N 0.428218 30.8276 5.15211 0
137 5 Zn 14.7923 30.827 5.15289 0
139 2 H 9.98525 29.8821 7.08732 0
161 1 C 11.5526 30.8277 5.15215 0
162 1 C 10.1696 30.8279 5.15218 0
163 1 C 9.45203 30.2943 6.23897 0
164 1 C 8.05382 30.2937 6.24011 0
166 1 C 8.05383 31.3618 4.06415 0
167 1 C 9.45203 31.3612 4.06529 0
195 3 N 12.763 30.8277 5.15194 0
202 4 O 15.0801 30.995 7.06541 0
203 4 O 15.08 30.6636 3.2384 0
204 4 O 15.0815 28.9134 5.30644 0
138 5 Zn 17.639 30.8285 5.15162 0
147 2 H 16.2692 30.3836 5.59585 0
148 2 H 16.4076 26.7003 6.37217 0
149 2 H 15.7775 26.1296 3.43531 0
156 2 H 16.1622 31.2718 4.70854 0
158 2 H 17.5609 29.6222 8.41739 0
159 2 H 18.3221 27.8309 0.330443 0
160 2 H 17.5412 28.932 2.31203 0
175 1 C 16.2237 26.9199 5.36478 0
176 1 C 16.0231 25.892 4.44528 0
185 1 C 16.2475 30.3223 1.26867 0
186 1 C 15.7352 31.9899 10.1994 0
187 1 C 16.2449 31.2729 9.0444 0
188 1 C 17.1428 30.2502 9.24956 0
189 1 C 17.6059 28.6362 0.231597 0
190 1 C 17.1433 29.2819 1.33012 0
191 1 C 16.1637 31.1437 7.65287 0
192 1 C 16.1772 30.6068 2.63243 0
194 1 C 16.2091 28.2312 5.28639 0
197 4 O 17.3485 30.7208 3.28578 0
198 4 O 17.3432 31.0833 6.94785 0
200 4 O 17.3498 28.9135 5.3074 0
416 2 H 22.446 28.8483 6.00109 0
442 1 C 22.9792 29.7159 5.63128 0
443 1 C 22.2616 30.8278 5.15218 0
444 1 C 20.8786 30.8278 5.15211 0
468 3 N 19.6683 30.8276 5.15211 0
411 2 H 29.2253 29.8821 7.08732 0
412 2 H 26.7726 29.8904 7.09916 0
415 2 H 24.8987 28.8368 5.99223 0
433 1 C 30.7926 30.8277 5.15215 0
434 1 C 29.4096 30.8279 5.15218 0
435 1 C 28.6921 30.2943 6.23897 0
436 1 C 27.2939 30.2937 6.24011 0
437 1 C 26.5784 30.8278 5.15213 0
438 1 C 27.2939 31.3618 4.06415 0
439 1 C 28.6921 31.3612 4.06529 0
440 1 C 25.0929 30.8278 5.15213 0
441 1 C 24.3774 29.7148 5.63182 0
409 5 Zn 34.0324 30.827 5.15289 0
410 5 Zn 36.879 30.8285 5.15162 0
419 2 H 35.5092 30.3836 5.59585 0
420 2 H 35.6476 26.7003 6.37217 0
421 2 H 35.0176 26.1296 3.43531 0
428 2 H 35.4023 31.2718 4.70854 0
430 2 H 36.801 29.6222 8.41739 0
431 2 H 37.5621 27.8309 0.330443 0
432 2 H 36.7812 28.932 2.31203 0
447 1 C 35.4637 26.9199 5.36478 0
448 1 C 35.2632 25.892 4.44528 0
457 1 C 35.4875 30.3223 1.26867 0
458 1 C 34.9753 31.9899 10.1994 0
459 1 C 35.485 31.2729 9.0444 0
460 1 C 36.3829 30.2502 9.24956 0
461 1 C 36.846 28.6362 0.231597 0
462 1 C 36.3834 29.2819 1.33012 0
463 1 C 35.4037 31.1437 7.65287 0
464 1 C 35.4173 30.6068 2.63243 0
466 1 C 35.4492 28.2312 5.28639 0
467 3 N 32.003 30.8277 5.15194 0
469 4 O 36.5885 30.7208 3.28578 0
470 4 O 36.5832 31.0833 6.94785 0
472 4 O 36.5898 28.9135 5.3074 0
474 4 O 34.3201 30.995 7.06541 0
475 4 O 34.3201 30.6636 3.2384 0
476 4 O 34.3216 28.9134 5.30644 0
73 2 H 7.21596 2.04046 13.4305 0
77 2 H 2.88938 3.08262 14.5286 0
78 2 H 5.34209 3.09404 14.5375 0
105 1 C 3.42259 2.21496 14.8984 0
106 1 C 4.8208 2.21613 14.8979 0
74 2 H 9.66867 2.04875 13.4424 0
84 2 H 14.8244 7.23821 13.8881 0
89 2 H 14.7228 3.05387 20.3278 0
113 1 C 15.3476 7.92275 14.5408 0
133 4 O 14.7649 3.01726 15.2225 0
83 2 H 17.1757 8.08928 17.4116 0
86 2 H 16.3373 5.80123 17.0945 0
87 2 H 15.7072 5.23052 14.1577 0
112 1 C 16.0258 7.46876 15.688 0
115 1 C 16.0917 6.03886 16.0845 0
116 1 C 15.8911 5.01091 15.165 0
125 1 C 15.9056 3.69955 15.2434 0
131 4 O 17.0332 3.01741 15.2234 0
349 2 H 22.1294 3.08262 14.5286 0
377 1 C 22.6626 2.21496 14.8984 0
345 2 H 26.456 2.04046 13.4305 0
346 2 H 28.9087 2.04875 13.4424 0
350 2 H 24.5821 3.09404 14.5375 0
378 1 C 24.0608 2.21613 14.8979 0
355 2 H 36.4158 8.08928 17.4116 0
356 2 H 34.0644 7.23821 13.8881 0
358 2 H 35.5773 5.80123 17.0945 0
359 2 H 34.9473 5.23052 14.1577 0
361 2 H 33.9628 3.05387 20.3278 0
384 1 C 35.2659 7.46876 15.688 0
385 1 C 34.5876 7.92275 14.5408 0
387 1 C 35.3318 6.03886 16.0845 0
388 1 C 35.1312 5.01091 15.165 0
397 1 C 35.1456 3.69955 15.2434 0
403 4 O 36.2732 3.01741 15.2234 0
405 4 O 34.0049 3.01726 15.2225 0
72 2 H 7.37426 15.6561 17.3246 0
75 2 H 5.50039 14.6025 16.2177 0
76 2 H 3.04769 14.6139 16.2265 0
97 1 C 7.18004 16.5935 15.3776 0
100 1 C 5.69461 16.5935 15.3776 0
101 1 C 4.9791 15.4804 15.8572 0
102 1 C 3.5809 15.4816 15.8567 0
103 1 C 2.86331 16.5935 15.3776 0
104 1 C 1.48032 16.5935 15.3775 0
128 3 N 0.269942 16.5933 15.3775 0
69 5 Zn 14.634 16.5927 15.3783 0
71 2 H 9.82697 15.6478 17.3128 0
85 2 H 14.7808 9.6072 13.3436 0
93 1 C 11.3943 16.5934 15.3776 0
94 1 C 10.0113 16.5935 15.3776 0
95 1 C 9.29375 16.06 16.4644 0
96 1 C 7.89555 16.0594 16.4655 0
114 1 C 15.3101 9.2857 14.2327 0
127 3 N 12.6047 16.5934 15.3774 0
135 4 O 14.9218 16.4292 13.4638 0
136 4 O 14.9232 14.6791 15.5319 0
70 5 Zn 17.4807 16.5942 15.377 0
79 2 H 16.1109 16.1493 15.8213 0
80 2 H 16.2493 12.466 16.5976 0
81 2 H 15.6192 11.8953 13.6607 0
82 2 H 17.1321 10.4583 16.8672 0
90 2 H 17.4026 15.3879 18.6428 0
91 2 H 18.1638 13.5966 10.5559 0
92 2 H 17.3829 14.6977 12.5375 0
107 1 C 16.0654 12.6856 15.5902 0
108 1 C 15.8648 11.6576 14.6707 0
109 1 C 15.9307 10.2277 15.0672 0
110 1 C 16.609 9.77374 16.2145 0
111 1 C 16.6465 8.41079 16.5226 0
117 1 C 16.0892 16.0879 11.4941 0
120 1 C 16.9845 16.0159 19.475 0
121 1 C 17.4477 14.4019 10.457 0
122 1 C 16.9851 15.0476 11.5556 0
124 1 C 16.0189 16.3725 12.8579 0
126 1 C 16.0509 13.9969 15.5118 0
129 4 O 17.1902 16.4865 13.5112 0
132 4 O 17.1915 14.6792 15.5328 0
348 2 H 22.2877 14.6139 16.2265 0
374 1 C 22.8209 15.4816 15.8567 0
375 1 C 22.1034 16.5935 15.3776 0
376 1 C 20.7204 16.5935 15.3775 0
400 3 N 19.51 16.5933 15.3775 0
343 2 H 29.067 15.6478 17.3128 0
344 2 H 26.6143 15.6561 17.3246 0
347 2 H 24.7404 14.6025 16.2177 0
365 1 C 30.6344 16.5934 15.3776 0
366 1 C 29.2514 16.5935 15.3776 0
367 1 C 28.5338 16.06 16.4644 0
368 1 C 27.1356 16.0594 16.4655 0
369 1 C 26.4201 16.5935 15.3776 0
372 1 C 24.9347 16.5935 15.3776 0
373 1 C 24.2191 15.4804 15.8572 0
341 5 Zn 33.8741 16.5927 15.3783 0
342 5 Zn 36.7207 16.5942 15.377 0
351 2 H 35.3509 16.1493 15.8213 0
352 2 H 35.4893 12.466 16.5976 0
353 2 H 34.8593 11.8953 13.6607 0
354 2 H 36.3722 10.4583 16.8672 0
357 2 H 34.0208 9.6072 13.3436 0
362 2 H 36.6427 15.3879 18.6428 0
363 2 H 37.4038 13.5966 10.5559 0
364 2 H 36.6229 14.6977 12.5375 0
379 1 C 35.3054 12.6856 15.5902 0
380 1 C 35.1049 11.6576 14.6707 0
381 1 C 35.1707 10.2277 15.0672 0
382 1 C 35.849 9.77374 16.2145 0
383 1 C 35.8865 8.41079 16.5226 0
386 1 C 34.5501 9.2857 14.2327 0
389 1 C 35.3292 16.0879 11.4941 0
392 1 C 36.2246 16.0159 19.475 0
393 1 C 36.6877 14.4019 10.457 0
394 1 C 36.2251 15.0476 11.5556 0
396 1 C 35.259 16.3725 12.8579 0
398 1 C 35.2909 13.9969 15.5118 0
399 3 N 31.8447 16.5934 15.3774 0
401 4 O 36.4302 16.4865 13.5112 0
404 4 O 36.4316 14.6792 15.5328 0
407 4 O 34.1618 16.4292 13.4638 0
408 4 O 34.1633 14.6791 15.5319 0
209 2 H 7.37426 17.5308 13.4305 0
213 2 H 3.04768 18.573 14.5286 0
214 2 H 5.50039 18.5844 14.5375 0
241 1 C 3.5809 17.7053 14.8984 0
242 1 C 4.97911 17.7065 14.8979 0
98 1 C 7.89555 17.1275 14.2896 0
99 1 C 9.29375 17.1269 14.2907 0
134 4 O 14.9218 16.7607 17.2908 0
210 2 H 9.82697 17.5391 13.4424 0
220 2 H 14.9827 22.7286 13.8881 0
221 2 H 14.9391 25.0975 13.3436 0
225 2 H 14.8811 18.5442 20.3278 0
249 1 C 15.5059 23.4131 14.5408 0
250 1 C 15.4684 24.776 14.2327 0
269 4 O 14.9232 18.5076 15.2225 0
88 2 H 16.0039 17.0375 14.934 0
118 1 C 15.577 17.7556 20.4248 0
119 1 C 16.0867 17.0386 19.2698 0
123 1 C 16.0054 16.9094 17.8783 0
130 4 O 17.1849 16.849 17.1733 0
219 2 H 17.334 23.5796 17.4116 0
222 2 H 16.4956 21.2916 17.0945 0
223 2 H 15.8655 20.7209 14.1577 0
247 1 C 16.8048 23.9011 16.5226 0
248 1 C 16.1841 22.9591 15.688 0
251 1 C 16.25 21.5292 16.0845 0
252 1 C 16.0494 20.5012 15.165 0
261 1 C 16.0639 19.1899 15.2434 0
267 4 O 17.1915 18.5077 15.2234 0
485 2 H 22.2877 18.573 14.5286 0
513 1 C 22.8209 17.7053 14.8984 0
370 1 C 27.1356 17.1275 14.2896 0
371 1 C 28.5338 17.1269 14.2907 0
481 2 H 26.6143 17.5308 13.4305 0
482 2 H 29.067 17.5391 13.4424 0
486 2 H 24.7404 18.5844 14.5375 0
514 1 C 24.2191 17.7065 14.8979 0
360 2 H 35.244 17.0375 14.934 0
390 1 C 34.817 17.7556 20.4248 0
391 1 C 35.3267 17.0386 19.2698 0
395 1 C 35.2454 16.9094 17.8783 0
402 4 O 36.4249 16.849 17.1733 0
406 4 O 34.1618 16.7607 17.2908 0
491 2 H 36.5741 23.5796 17.4116 0
492 2 H 34.2227 22.7286 13.8881 0
493 2 H 34.1791 25.0975 13.3436 0
494 2 H 35.7356 21.2916 17.0945 0
495 2 H 35.1056 20.7209 14.1577 0
497 2 H 34.1211 18.5442 20.3278 0
519 1 C 36.0448 23.9011 16.5226 0
520 1 C 35.4242 22.9591 15.688 0
521 1 C 34.7459 23.4131 14.5408 0
522 1 C 34.7084 24.776 14.2327 0
523 1 C 35.4901 21.5292 16.0845 0
524 1 C 35.2895 20.5012 15.165 0
533 1 C 35.3039 19.1899 15.2434 0
539 4 O 36.4315 18.5077 15.2234 0
541 4 O 34.1632 18.5076 15.2225 0
208 2 H 7.53256 31.1465 17.3246 0
211 2 H 5.6587 30.0929 16.2177 0
212 2 H 3.20599 30.1043 16.2265 0
233 1 C 7.33834 32.0838 15.3776 0
236 1 C 5.85291 32.0838 15.3776 0
237 1 C 5.13741 30.9708 15.8572 0
238 1 C 3.7392 30.9719 15.8567 0
239 1 C 3.02162 32.0838 15.3776 0
240 1 C 1.63862 32.0838 15.3775 0
264 3 N 0.428242 32.0837 15.3775 0
205 5 Zn 14.7923 32.083 15.3783 0
207 2 H 9.98527 31.1382 17.3128 0
229 1 C 11.5526 32.0837 15.3776 0
230 1 C 10.1696 32.0839 15.3776 0
231 1 C 9.45206 31.5503 16.4644 0
232 1 C 8.05385 31.5498 16.4655 0
234 1 C 8.05385 32.6178 14.2896 0
235 1 C 9.45206 32.6172 14.2907 0
263 3 N 12.763 32.0837 15.3774 0
270 4 O 15.0801 32.251 17.2908 0
271 4 O 15.0801 31.9196 13.4638 0
272 4 O 15.0815 30.1694 15.5319 0
206 5 Zn 17.639 32.0846 15.377 0
215 2 H 16.2692 31.6397 15.8213 0
216 2 H 16.4076 27.9563 16.5976 0
217 2 H 15.7776 27.3856 13.6607 0
218 2 H 17.2904 25.9486 16.8672 0
224 2 H 16.1622 32.5278 14.934 0
226 2 H 17.5609 30.8783 18.6428 0
227 2 H 18.3221 29.087 10.5559 0
228 2 H 17.5412 30.188 12.5375 0
243 1 C 16.2237 28.1759 15.5902 0
244 1 C 16.0231 27.148 14.6707 0
245 1 C 16.089 25.7181 15.0672 0
246 1 C 16.7673 25.2641 16.2145 0
253 1 C 16.2475 31.5783 11.4941 0
254 1 C 15.7353 33.2459 20.4248 0
255 1 C 16.245 32.529 19.2698 0
256 1 C 17.1428 31.5062 19.475 0
257 1 C 17.606 29.8923 10.457 0
258 1 C 17.1434 30.5379 11.5556 0
259 1 C 16.1637 32.3997 17.8783 0
260 1 C 16.1772 31.8629 12.8579 0
262 1 C 16.2092 29.4873 15.5118 0
265 4 O 17.3485 31.9768 13.5112 0
266 4 O 17.3432 32.3393 17.1733 0
268 4 O 17.3498 30.1696 15.5328 0
484 2 H 22.446 30.1043 16.2265 0
510 1 C 22.9792 30.9719 15.8567 0
511 1 C 22.2617 32.0838 15.3776 0
512 1 C 20.8787 32.0838 15.3775 0
536 3 N 19.6683 32.0837 15.3775 0
479 2 H 29.2253 31.1382 17.3128 0
480 2 H 26.7726 31.1465 17.3246 0
483 2 H 24.8987 30.0929 16.2177 0
501 1 C 30.7927 32.0837 15.3776 0
502 1 C 29.4097 32.0839 15.3776 0
503 1 C 28.6921 31.5503 16.4644 0
504 1 C 27.2939 31.5498 16.4655 0
505 1 C 26.5784 32.0838 15.3776 0
506 1 C 27.2939 32.6178 14.2896 0
507 1 C 28.6921 32.6172 14.2907 0
508 1 C 25.093 32.0838 15.3776 0
509 1 C 24.3774 30.9708 15.8572 0
477 5 Zn 34.0324 32.083 15.3783 0
478 5 Zn 36.879 32.0846 15.377 0
487 2 H 35.5092 31.6397 15.8213 0
488 2 H 35.6476 27.9563 16.5976 0
489 2 H 35.0176 27.3856 13.6607 0
490 2 H 36.5305 25.9486 16.8672 0
496 2 H 35.4023 32.5278 14.934 0
498 2 H 36.801 30.8783 18.6428 0
499 2 H 37.5621 29.087 10.5559 0
500 2 H 36.7812 30.188 12.5375 0
515 1 C 35.4638 28.1759 15.5902 0
516 1 C 35.2632 27.148 14.6707 0
517 1 C 35.329 25.7181 15.0672 0
518 1 C 36.0073 25.2641 16.2145 0
525 1 C 35.4875 31.5783 11.4941 0
526 1 C 34.9753 33.2459 20.4248 0
527 1 C 35.485 32.529 19.2698 0
528 1 C 36.3829 31.5062 19.475 0
529 1 C 36.846 29.8923 10.457 0
530 1 C 36.3834 30.5379 11.5556 0
531 1 C 35.4037 32.3997 17.8783 0
532 1 C 35.4173 31.8629 12.8579 0
534 1 C 35.4492 29.4873 15.5118 0
535 3 N 32.003 32.0837 15.3774 0
537 4 O 36.5885 31.9768 13.5112 0
538 4 O 36.5832 32.3393 17.1733 0
540 4 O 36.5899 30.1696 15.5328 0
542 4 O 34.3201 32.251 17.2908 0
543 4 O 34.3201 31.9196 13.4638 0
544 4 O 34.3216 30.1694 15.5319 0
