Created by Ryther's code on 2025-07-31 16:51:49.849406, modified by xyan11@uic.edu. 

    1952 atoms
    2208 bonds
    4480 angles
    4928 dihedrals
    512 impropers

    6 atom types
    10 bond types
    19 angle types
    5 dihedral types
    3 improper types

0.00000000 17.354 xlo xhi
0.00000000 26.084 ylo yhi
0.00000000 56.402 zlo zhi
0.0 0.0 0.0 xy xz yz 

Masses 

    1    12.0107  #   C
    2    12.0107  #   C
    3     63.546  #  Cu
    4    1.00794  #   H
    5    14.0067  #   N
    6    15.9994  #   O

Pair Coeffs

    1       0.10500      3.43085  #  C_3 C_3
    2       0.10500      3.43085  #  C_R C_R
    3       0.00500      3.11369  #  Cu4+2 Cu4+2
    4       0.04400      2.57113  #  H_ H_
    5       0.06900      3.26069  #  N_R N_R
    6       0.06000      3.11815  #  O_2_M O_2_M

Bond Coeffs

    1     156.46842      2.11661  #  Cu4+2 N_R bond order=0.5
    2     165.69608      2.00798  #  Cu4+2 O_2_M bond order=0.5
    3      36.72975      3.03272  #  Cu4+2 Cu4+2 bond order=0.25
    4     331.06939      1.10940  #  C_3 H_ bond order=1.0
    5     357.44038      1.08142  #  C_R H_ bond order=1.0
    6     714.55744      1.26901  #  C_R O_2_M bond order=1.5
    7     369.94394      1.48600  #  C_3 C_R bond order=1.0
    8     349.79590      1.51400  #  C_3 C_3 bond order=1.0
    9     462.65505      1.37926  #  C_R C_R bond order=1.5
    10    663.66675      1.34507  #  C_R N_R bond order=1.5

Angle Coeffs

    1  cosine/periodic        117.18362            1            4  #  N_R Cu4+2 O_2_M
    2  cosine/periodic         41.29837            1            4  #  Cu4+2 Cu4+2 N_R
    3  cosine/periodic        115.06366            1            4  #  O_2_M Cu4+2 O_2_M
    4  cosine/periodic         38.49981            1            4  #  Cu4+2 Cu4+2 O_2_M
    5  cosine/periodic        133.31499           -1            3  #  C_3 C_R O_2_M
    6  cosine/periodic        206.77843           -1            3  #  O_2_M C_R O_2_M
    7  fourier                 75.49653      0.34375      0.37500      0.28125  #  H_ C_3 H_
    8  fourier                121.77380      0.34375      0.37500      0.28125  #  C_R C_3 H_
    9  fourier                117.31542      0.34375      0.37500      0.28125  #  C_3 C_3 H_
    10 fourier                220.22341      0.34375      0.37500      0.28125  #  C_3 C_3 C_R
    11 fourier                214.20548      0.34375      0.37500      0.28125  #  C_3 C_3 C_3
    12 cosine/periodic         57.28902           -1            3  #  C_R C_R H_
    13 cosine/periodic         79.78069           -1            3  #  H_ C_R N_R
    14 cosine/periodic        153.68727           -1            3  #  C_R C_R N_R
    15 cosine/periodic        111.29751           -1            3  #  C_R C_R C_R
    16 cosine/periodic         99.13715           -1            3  #  C_3 C_R C_R
    17 cosine/periodic         48.50572           -1            3  #  C_R N_R Cu4+2
    18 cosine/periodic        120.00052           -1            3  #  C_R N_R C_R
    19 cosine/periodic         57.09052           -1            3  #  C_R O_2_M Cu4+2

Dihedral Coeffs

    1       6.73711           -1            2  #  X C_R O_2_M X bond order=1.5
    2       0.16667           -1            6  #  X C_3 C_R X bond order=1.0
    3       0.11772            1            3  #  X C_3 C_3 X bond order=1.0
    4       3.36856           -1            2  #  X C_R C_R X bond order=1.5
    5       3.36856           -1            2  #  X C_R N_R X bond order=1.5

Improper Coeffs

    1      16.66667      1.00000     -1.00000      0.00000            1  #  C_R X X X O_2 present=True
    2       2.00000      1.00000     -1.00000      0.00000            1  #  C_R X X X O_2 present=False
    3       2.00000      1.00000     -1.00000      0.00000            1  #  N_R X X X O_2 present=False

Atoms # a, b, c, alpha, beta, gamma: 17.3540000000, 26.0840000000, 56.4020000000, 90.0000000000, 90.0000000000, 90.0000000000 $$$atoms$$$

    1 1     3      0.00000      8.23673     12.43476     13.00715   #   Cu1   0.47463000   0.47672000   0.23061500
    2 1     3      0.00000      8.23673      7.12824      1.09335   #   Cu2   0.47463000   0.27328000   0.01938500
    3 1     3      0.00000      4.77877      0.60724     27.10765   #   Cu3   0.27537000   0.02328000   0.48061500
    4 1     3      0.00000      4.77877      5.91376     15.19385   #   Cu4   0.27537000   0.22672000   0.26938500
    5 1     3      0.00000      0.44027      0.60724     15.19385   #   Cu5   0.02537000   0.02328000   0.26938500
    6 1     3      0.00000      0.44027      5.91376     27.10765   #   Cu6   0.02537000   0.22672000   0.48061500
    7 1     3      0.00000      3.89823     12.43476      1.09335   #   Cu7   0.22463000   0.47672000   0.01938500
    8 1     3      0.00000      3.89823      7.12824     13.00715   #   Cu8   0.22463000   0.27328000   0.23061500
    9 1     4      0.00000      1.05512      9.55979     16.64705   #    H1   0.06080000   0.36650000   0.29515000
   10 1     4      0.00000      1.88117      9.25199     15.35544   #    H2   0.10840000   0.35470000   0.27225000
   11 1     4      0.00000      7.92904      8.37818     15.84332   #    H3   0.45690000   0.32120000   0.28090000
   12 1     4      0.00000      8.62667      8.18907     14.45019   #    H4   0.49710000   0.31395000   0.25620000
   13 1     4      0.00000      0.14230      6.20147     15.71924   #    H5   0.00820000   0.23775000   0.27870000
   14 1     4      0.00000      0.86683      6.98790     16.86702   #    H6   0.04995000   0.26790000   0.29905000
   15 1     4      0.00000      6.81058      9.82063     12.07849   #    H7   0.39245000   0.37650000   0.21415000
   16 1     4      0.00000      5.36586      9.03158     10.48795   #    H8   0.30920000   0.34625000   0.18595000
   17 1     4      0.00000      5.62356     12.57640      8.65207   #    H9   0.32405000   0.48215000   0.15340000
   18 1     4      0.00000      7.06134      0.21128     10.28772   #   H10   0.40690000   0.00810000   0.18240000
   19 1     4      0.00000      3.88296      9.49718      8.56464   #   H11   0.22375000   0.36410000   0.15185000
   20 1     4      0.00000      3.84044     10.95658      7.98652   #   H12   0.22130000   0.42005000   0.14160000
   21 1     4      0.00000      5.82661      9.04984      7.32662   #   H13   0.33575000   0.34695000   0.12990000
   22 1     4      0.00000      1.05512     10.00321     25.65445   #   H14   0.06080000   0.38350000   0.45485000
   23 1     4      0.00000      1.88117     10.31101     26.94606   #   H15   0.10840000   0.39530000   0.47775000
   24 1     4      0.00000      7.92904     11.18482     26.45818   #   H16   0.45690000   0.42880000   0.46910000
   25 1     4      0.00000      8.62667     11.37393     27.85131   #   H17   0.49710000   0.43605000   0.49380000
   26 1     4      0.00000      0.14230      0.31953     26.58226   #   H18   0.00820000   0.01225000   0.47130000
   27 1     4      0.00000      0.86683     12.57510     25.43448   #   H19   0.04995000   0.48210000   0.45095000
   28 1     4      0.00000      6.81058      9.74237      2.02201   #   H20   0.39245000   0.37350000   0.03585000
   29 1     4      0.00000      5.36586     10.53142      3.61255   #   H21   0.30920000   0.40375000   0.06405000
   30 1     4      0.00000      5.62356      6.98660      5.44843   #   H22   0.32405000   0.26785000   0.09660000
   31 1     4      0.00000      7.06134      6.30972      3.81278   #   H23   0.40690000   0.24190000   0.06760000
   32 1     4      0.00000      3.88296     10.06582      5.53586   #   H24   0.22375000   0.38590000   0.09815000
   33 1     4      0.00000      3.84044      8.60642      6.11398   #   H25   0.22130000   0.32995000   0.10840000
   34 1     4      0.00000      5.82661     10.51316      6.77388   #   H26   0.33575000   0.40305000   0.12010000
   35 1     4      0.00000      3.28338      3.48221      2.54655   #   H27   0.18920000   0.13350000   0.04515000
   36 1     4      0.00000      2.45733      3.79001      1.25494   #   H28   0.14160000   0.14530000   0.02225000
   37 1     4      0.00000      5.08646      4.66382      1.74282   #   H29   0.29310000   0.17880000   0.03090000
   38 1     4      0.00000      4.38883      4.85293      0.34969   #   H30   0.25290000   0.18605000   0.00620000
   39 1     4      0.00000      4.19620      6.84053      1.61874   #   H31   0.24180000   0.26225000   0.02870000
   40 1     4      0.00000      3.47167      6.05410      2.76652   #   H32   0.20005000   0.23210000   0.04905000
   41 1     4      0.00000      6.20492      3.22137     26.17899   #   H33   0.35755000   0.12350000   0.46415000
   42 1     4      0.00000      7.64964      4.01042     24.58845   #   H34   0.44080000   0.15375000   0.43595000
   43 1     4      0.00000      7.39194      0.46560     22.75257   #   H35   0.42595000   0.01785000   0.40340000
   44 1     4      0.00000      5.95416     12.83072     24.38822   #   H36   0.34310000   0.49190000   0.43240000
   45 1     4      0.00000      0.45554      3.54482     22.66514   #   H37   0.02625000   0.13590000   0.40185000
   46 1     4      0.00000      0.49806      2.08542     22.08702   #   H38   0.02870000   0.07995000   0.39160000
   47 1     4      0.00000      7.18889      3.99216     21.42712   #   H39   0.41425000   0.15305000   0.37990000
   48 1     4      0.00000      3.28338      3.03879     11.55395   #   H40   0.18920000   0.11650000   0.20485000
   49 1     4      0.00000      2.45733      2.73099     12.84556   #   H41   0.14160000   0.10470000   0.22775000
   50 1     4      0.00000      5.08646      1.85718     12.35768   #   H42   0.29310000   0.07120000   0.21910000
   51 1     4      0.00000      4.38883      1.66807     13.75081   #   H43   0.25290000   0.06395000   0.24380000
   52 1     4      0.00000      4.19620     12.72247     12.48176   #   H44   0.24180000   0.48775000   0.22130000
   53 1     4      0.00000      3.47167      0.46690     11.33398   #   H45   0.20005000   0.01790000   0.20095000
   54 1     4      0.00000      6.20492      3.29963     16.12251   #   H46   0.35755000   0.12650000   0.28585000
   55 1     4      0.00000      7.64964      2.51058     17.71305   #   H47   0.44080000   0.09625000   0.31405000
   56 1     4      0.00000      7.39194      6.05540     19.54893   #   H48   0.42595000   0.23215000   0.34660000
   57 1     4      0.00000      5.95416      6.73228     17.91328   #   H49   0.34310000   0.25810000   0.31760000
   58 1     4      0.00000      0.45554      2.97618     19.63636   #   H50   0.02625000   0.11410000   0.34815000
   59 1     4      0.00000      0.49806      4.43558     20.21448   #   H51   0.02870000   0.17005000   0.35840000
   60 1     4      0.00000      7.18889      2.52884     20.87438   #   H52   0.41425000   0.09695000   0.37010000
   61 1     4      0.00000      7.62188      3.48221     11.55395   #   H53   0.43920000   0.13350000   0.20485000
   62 1     4      0.00000      6.79583      3.79001     12.84556   #   H54   0.39160000   0.14530000   0.22775000
   63 1     4      0.00000      0.74796      4.66382     12.35768   #   H55   0.04310000   0.17880000   0.21910000
   64 1     4      0.00000      0.05033      4.85293     13.75081   #   H56   0.00290000   0.18605000   0.24380000
   65 1     4      0.00000      8.53470      6.84053     12.48176   #   H57   0.49180000   0.26225000   0.22130000
   66 1     4      0.00000      7.81017      6.05410     11.33398   #   H58   0.45005000   0.23210000   0.20095000
   67 1     4      0.00000      1.86642      3.22137     16.12251   #   H59   0.10755000   0.12350000   0.28585000
   68 1     4      0.00000      3.31114      4.01042     17.71305   #   H60   0.19080000   0.15375000   0.31405000
   69 1     4      0.00000      3.05344      0.46560     19.54893   #   H61   0.17595000   0.01785000   0.34660000
   70 1     4      0.00000      1.61566     12.83072     17.91328   #   H62   0.09310000   0.49190000   0.31760000
   71 1     4      0.00000      4.79404      3.54482     19.63636   #   H63   0.27625000   0.13590000   0.34815000
   72 1     4      0.00000      4.83656      2.08542     20.21448   #   H64   0.27870000   0.07995000   0.35840000
   73 1     4      0.00000      2.85039      3.99216     20.87438   #   H65   0.16425000   0.15305000   0.37010000
   74 1     4      0.00000      7.62188      3.03879      2.54655   #   H66   0.43920000   0.11650000   0.04515000
   75 1     4      0.00000      6.79583      2.73099      1.25494   #   H67   0.39160000   0.10470000   0.02225000
   76 1     4      0.00000      0.74796      1.85718      1.74282   #   H68   0.04310000   0.07120000   0.03090000
   77 1     4      0.00000      0.05033      1.66807      0.34969   #   H69   0.00290000   0.06395000   0.00620000
   78 1     4      0.00000      8.53470     12.72247      1.61874   #   H70   0.49180000   0.48775000   0.02870000
   79 1     4      0.00000      7.81017      0.46690      2.76652   #   H71   0.45005000   0.01790000   0.04905000
   80 1     4      0.00000      1.86642      3.29963     26.17899   #   H72   0.10755000   0.12650000   0.46415000
   81 1     4      0.00000      3.31114      2.51058     24.58845   #   H73   0.19080000   0.09625000   0.43595000
   82 1     4      0.00000      3.05344      6.05540     22.75257   #   H74   0.17595000   0.23215000   0.40340000
   83 1     4      0.00000      1.61566      6.73228     24.38822   #   H75   0.09310000   0.25810000   0.43240000
   84 1     4      0.00000      4.79404      2.97618     22.66514   #   H76   0.27625000   0.11410000   0.40185000
   85 1     4      0.00000      4.83656      4.43558     22.08702   #   H77   0.27870000   0.17005000   0.39160000
   86 1     4      0.00000      2.85039      2.52884     21.42712   #   H78   0.16425000   0.09695000   0.37990000
   87 1     4      0.00000      5.39362      9.55979     25.65445   #   H79   0.31080000   0.36650000   0.45485000
   88 1     4      0.00000      6.21967      9.25199     26.94606   #   H80   0.35840000   0.35470000   0.47775000
   89 1     4      0.00000      3.59054      8.37818     26.45818   #   H81   0.20690000   0.32120000   0.46910000
   90 1     4      0.00000      4.28817      8.18907     27.85131   #   H82   0.24710000   0.31395000   0.49380000
   91 1     4      0.00000      4.48080      6.20147     26.58226   #   H83   0.25820000   0.23775000   0.47130000
   92 1     4      0.00000      5.20533      6.98790     25.43448   #   H84   0.29995000   0.26790000   0.45095000
   93 1     4      0.00000      2.47208      9.82063      2.02201   #   H85   0.14245000   0.37650000   0.03585000
   94 1     4      0.00000      1.02736      9.03158      3.61255   #   H86   0.05920000   0.34625000   0.06405000
   95 1     4      0.00000      1.28506     12.57640      5.44843   #   H87   0.07405000   0.48215000   0.09660000
   96 1     4      0.00000      2.72284      0.21128      3.81278   #   H88   0.15690000   0.00810000   0.06760000
   97 1     4      0.00000      8.22146      9.49718      5.53586   #   H89   0.47375000   0.36410000   0.09815000
   98 1     4      0.00000      8.17894     10.95658      6.11398   #   H90   0.47130000   0.42005000   0.10840000
   99 1     4      0.00000      1.48811      9.04984      6.77388   #   H91   0.08575000   0.34695000   0.12010000
  100 1     4      0.00000      5.39362     10.00321     16.64705   #   H92   0.31080000   0.38350000   0.29515000
  101 1     4      0.00000      6.21967     10.31101     15.35544   #   H93   0.35840000   0.39530000   0.27225000
  102 1     4      0.00000      3.59054     11.18482     15.84332   #   H94   0.20690000   0.42880000   0.28090000
  103 1     4      0.00000      4.28817     11.37393     14.45019   #   H95   0.24710000   0.43605000   0.25620000
  104 1     4      0.00000      4.48080      0.31953     15.71924   #   H96   0.25820000   0.01225000   0.27870000
  105 1     4      0.00000      5.20533     12.57510     16.86702   #   H97   0.29995000   0.48210000   0.29905000
  106 1     4      0.00000      2.47208      9.74237     12.07849   #   H98   0.14245000   0.37350000   0.21415000
  107 1     4      0.00000      1.02736     10.53142     10.48795   #   H99   0.05920000   0.40375000   0.18595000
  108 1     4      0.00000      1.28506      6.98660      8.65207   #  H100   0.07405000   0.26785000   0.15340000
  109 1     4      0.00000      2.72284      6.30972     10.28772   #  H101   0.15690000   0.24190000   0.18240000
  110 1     4      0.00000      8.22146     10.06582      8.56464   #  H102   0.47375000   0.38590000   0.15185000
  111 1     4      0.00000      8.17894      8.60642      7.98652   #  H103   0.47130000   0.32995000   0.14160000
  112 1     4      0.00000      1.48811     10.51316      7.32662   #  H104   0.08575000   0.40305000   0.12990000
  113 1     2      0.00000      0.53797     10.76226     15.08302   #    C1   0.03100000   0.41260000   0.26742000
  114 1     1      0.00000      0.99005      9.44762     15.68596   #    C2   0.05705000   0.36220000   0.27811000
  115 1     1      0.00000      0.10846      8.25298     15.40621   #    C3   0.00625000   0.31640000   0.27315000
  116 1     1      0.00000      0.74709      6.93704     15.90452   #    C4   0.04305000   0.26595000   0.28198500
  117 1     2      0.00000      2.07727      6.65664     15.25674   #    C5   0.11970000   0.25520000   0.27050000
  118 1     2      0.00000      6.57283     10.38274     11.37628   #    C6   0.37875000   0.39805000   0.20170000
  119 1     2      0.00000      5.69819      9.89757     10.42196   #    C7   0.32835000   0.37945000   0.18478000
  120 1     2      0.00000      5.32681     10.70618      9.37683   #    C8   0.30695000   0.41045000   0.16625000
  121 1     2      0.00000      5.85350     11.99342      9.33933   #    C9   0.33730000   0.45980000   0.16558500
  122 1     2      0.00000      6.71773     12.38990     10.33003   #   C10   0.38710000   0.47500000   0.18315000
  123 1     1      0.00000      4.43134     10.23406      8.25330   #   C11   0.25535000   0.39235000   0.14633000
  124 1     2      0.00000      0.53797      8.80074     27.21848   #   C12   0.03100000   0.33740000   0.48258000
  125 1     1      0.00000      0.99005     10.11538     26.61554   #   C13   0.05705000   0.38780000   0.47189000
  126 1     1      0.00000      0.10846     11.31002     26.89529   #   C14   0.00625000   0.43360000   0.47685000
  127 1     1      0.00000      0.74709     12.62596     26.39698   #   C15   0.04305000   0.48405000   0.46801500
  128 1     2      0.00000      2.07727     12.90636     27.04476   #   C16   0.11970000   0.49480000   0.47950000
  129 1     2      0.00000      6.57283      9.18026      2.72422   #   C17   0.37875000   0.35195000   0.04830000
  130 1     2      0.00000      5.69819      9.66543      3.67854   #   C18   0.32835000   0.37055000   0.06522000
  131 1     2      0.00000      5.32681      8.85682      4.72367   #   C19   0.30695000   0.33955000   0.08375000
  132 1     2      0.00000      5.85350      7.56958      4.76117   #   C20   0.33730000   0.29020000   0.08441500
  133 1     2      0.00000      6.71773      7.17310      3.77047   #   C21   0.38710000   0.27500000   0.06685000
  134 1     1      0.00000      4.43134      9.32894      5.84720   #   C22   0.25535000   0.35765000   0.10367000
  135 1     2      0.00000      3.80053      2.27974      0.98252   #   C23   0.21900000   0.08740000   0.01742000
  136 1     1      0.00000      3.34845      3.59438      1.58546   #   C24   0.19295000   0.13780000   0.02811000
  137 1     1      0.00000      4.23004      4.78902      1.30571   #   C25   0.24375000   0.18360000   0.02315000
  138 1     1      0.00000      3.59141      6.10496      1.80402   #   C26   0.20695000   0.23405000   0.03198500
  139 1     2      0.00000      2.26123      6.38536      1.15624   #   C27   0.13030000   0.24480000   0.02050000
  140 1     2      0.00000      6.44267      2.65926     25.47678   #   C28   0.37125000   0.10195000   0.45170000
  141 1     2      0.00000      7.31731      3.14443     24.52246   #   C29   0.42165000   0.12055000   0.43478000
  142 1     2      0.00000      7.68869      2.33582     23.47733   #   C30   0.44305000   0.08955000   0.41625000
  143 1     2      0.00000      7.16200      1.04858     23.43983   #   C31   0.41270000   0.04020000   0.41558500
  144 1     2      0.00000      6.29777      0.65210     24.43053   #   C32   0.36290000   0.02500000   0.43315000
  145 1     1      0.00000      8.58416      2.80794     22.35380   #   C33   0.49465000   0.10765000   0.39633000
  146 1     2      0.00000      3.80053      4.24126     13.11798   #   C34   0.21900000   0.16260000   0.23258000
  147 1     1      0.00000      3.34845      2.92662     12.51504   #   C35   0.19295000   0.11220000   0.22189000
  148 1     1      0.00000      4.23004      1.73198     12.79479   #   C36   0.24375000   0.06640000   0.22685000
  149 1     1      0.00000      3.59141      0.41604     12.29648   #   C37   0.20695000   0.01595000   0.21801500
  150 1     2      0.00000      2.26123      0.13564     12.94426   #   C38   0.13030000   0.00520000   0.22950000
  151 1     2      0.00000      6.44267      3.86174     16.82472   #   C39   0.37125000   0.14805000   0.29830000
  152 1     2      0.00000      7.31731      3.37657     17.77904   #   C40   0.42165000   0.12945000   0.31522000
  153 1     2      0.00000      7.68869      4.18518     18.82417   #   C41   0.44305000   0.16045000   0.33375000
  154 1     2      0.00000      7.16200      5.47242     18.86167   #   C42   0.41270000   0.20980000   0.33441500
  155 1     2      0.00000      6.29777      5.86890     17.87097   #   C43   0.36290000   0.22500000   0.31685000
  156 1     1      0.00000      8.58416      3.71306     19.94770   #   C44   0.49465000   0.14235000   0.35367000
  157 1     2      0.00000      8.13903      2.27974     13.11798   #   C45   0.46900000   0.08740000   0.23258000
  158 1     1      0.00000      7.68695      3.59438     12.51504   #   C46   0.44295000   0.13780000   0.22189000
  159 1     1      0.00000      8.56854      4.78902     12.79479   #   C47   0.49375000   0.18360000   0.22685000
  160 1     1      0.00000      7.92991      6.10496     12.29648   #   C48   0.45695000   0.23405000   0.21801500
  161 1     2      0.00000      6.59973      6.38536     12.94426   #   C49   0.38030000   0.24480000   0.22950000
  162 1     2      0.00000      2.10417      2.65926     16.82472   #   C50   0.12125000   0.10195000   0.29830000
  163 1     2      0.00000      2.97881      3.14443     17.77904   #   C51   0.17165000   0.12055000   0.31522000
  164 1     2      0.00000      3.35019      2.33582     18.82417   #   C52   0.19305000   0.08955000   0.33375000
  165 1     2      0.00000      2.82350      1.04858     18.86167   #   C53   0.16270000   0.04020000   0.33441500
  166 1     2      0.00000      1.95927      0.65210     17.87097   #   C54   0.11290000   0.02500000   0.31685000
  167 1     1      0.00000      4.24566      2.80794     19.94770   #   C55   0.24465000   0.10765000   0.35367000
  168 1     2      0.00000      8.13903      4.24126      0.98252   #   C56   0.46900000   0.16260000   0.01742000
  169 1     1      0.00000      7.68695      2.92662      1.58546   #   C57   0.44295000   0.11220000   0.02811000
  170 1     1      0.00000      8.56854      1.73198      1.30571   #   C58   0.49375000   0.06640000   0.02315000
  171 1     1      0.00000      7.92991      0.41604      1.80402   #   C59   0.45695000   0.01595000   0.03198500
  172 1     2      0.00000      6.59973      0.13564      1.15624   #   C60   0.38030000   0.00520000   0.02050000
  173 1     2      0.00000      2.10417      3.86174     25.47678   #   C61   0.12125000   0.14805000   0.45170000
  174 1     2      0.00000      2.97881      3.37657     24.52246   #   C62   0.17165000   0.12945000   0.43478000
  175 1     2      0.00000      3.35019      4.18518     23.47733   #   C63   0.19305000   0.16045000   0.41625000
  176 1     2      0.00000      2.82350      5.47242     23.43983   #   C64   0.16270000   0.20980000   0.41558500
  177 1     2      0.00000      1.95927      5.86890     24.43053   #   C65   0.11290000   0.22500000   0.43315000
  178 1     1      0.00000      4.24566      3.71306     22.35380   #   C66   0.24465000   0.14235000   0.39633000
  179 1     2      0.00000      4.87647     10.76226     27.21848   #   C67   0.28100000   0.41260000   0.48258000
  180 1     1      0.00000      5.32855      9.44762     26.61554   #   C68   0.30705000   0.36220000   0.47189000
  181 1     1      0.00000      4.44696      8.25298     26.89529   #   C69   0.25625000   0.31640000   0.47685000
  182 1     1      0.00000      5.08559      6.93704     26.39698   #   C70   0.29305000   0.26595000   0.46801500
  183 1     2      0.00000      6.41577      6.65664     27.04476   #   C71   0.36970000   0.25520000   0.47950000
  184 1     2      0.00000      2.23433     10.38274      2.72422   #   C72   0.12875000   0.39805000   0.04830000
  185 1     2      0.00000      1.35969      9.89757      3.67854   #   C73   0.07835000   0.37945000   0.06522000
  186 1     2      0.00000      0.98831     10.70618      4.72367   #   C74   0.05695000   0.41045000   0.08375000
  187 1     2      0.00000      1.51500     11.99342      4.76117   #   C75   0.08730000   0.45980000   0.08441500
  188 1     2      0.00000      2.37923     12.38990      3.77047   #   C76   0.13710000   0.47500000   0.06685000
  189 1     1      0.00000      0.09284     10.23406      5.84720   #   C77   0.00535000   0.39235000   0.10367000
  190 1     2      0.00000      4.87647      8.80074     15.08302   #   C78   0.28100000   0.33740000   0.26742000
  191 1     1      0.00000      5.32855     10.11538     15.68596   #   C79   0.30705000   0.38780000   0.27811000
  192 1     1      0.00000      4.44696     11.31002     15.40621   #   C80   0.25625000   0.43360000   0.27315000
  193 1     1      0.00000      5.08559     12.62596     15.90452   #   C81   0.29305000   0.48405000   0.28198500
  194 1     2      0.00000      6.41577     12.90636     15.25674   #   C82   0.36970000   0.49480000   0.27050000
  195 1     2      0.00000      2.23433      9.18026     11.37628   #   C83   0.12875000   0.35195000   0.20170000
  196 1     2      0.00000      1.35969      9.66543     10.42196   #   C84   0.07835000   0.37055000   0.18478000
  197 1     2      0.00000      0.98831      8.85682      9.37683   #   C85   0.05695000   0.33955000   0.16625000
  198 1     2      0.00000      1.51500      7.56958      9.33933   #   C86   0.08730000   0.29020000   0.16558500
  199 1     2      0.00000      2.37923      7.17310     10.33003   #   C87   0.13710000   0.27500000   0.18315000
  200 1     1      0.00000      0.09284      9.32894      8.25330   #   C88   0.00535000   0.35765000   0.14633000
  201 1     1      0.00000      5.25392      9.78150      7.05025   #   C89   0.30275000   0.37500000   0.12500000
  202 1     1      0.00000      7.76158      3.26050     21.15075   #   C90   0.44725000   0.12500000   0.37500000
  203 1     1      0.00000      3.42308      3.26050     21.15075   #   C91   0.19725000   0.12500000   0.37500000
  204 1     1      0.00000      0.91542      9.78150      7.05025   #   C92   0.05275000   0.37500000   0.12500000
  205 1     5      0.00000      7.09605     11.61129     11.35175   #    N1   0.40890000   0.44515000   0.20126500
  206 1     5      0.00000      7.09605      7.95171      2.74875   #    N2   0.40890000   0.30485000   0.04873500
  207 1     5      0.00000      5.91945      1.43071     25.45225   #    N3   0.34110000   0.05485000   0.45126500
  208 1     5      0.00000      5.91945      5.09029     16.84925   #    N4   0.34110000   0.19515000   0.29873500
  209 1     5      0.00000      1.58095      1.43071     16.84925   #    N5   0.09110000   0.05485000   0.29873500
  210 1     5      0.00000      1.58095      5.09029     25.45225   #    N6   0.09110000   0.19515000   0.45126500
  211 1     5      0.00000      2.75755     11.61129      2.74875   #    N7   0.15890000   0.44515000   0.04873500
  212 1     5      0.00000      2.75755      7.95171     11.35175   #    N8   0.15890000   0.30485000   0.20126500
  213 1     6      0.00000      0.05033     10.75561     13.93863   #    O1   0.00290000   0.41234500   0.24713000
  214 1     6      0.00000      0.73668     11.79010     15.78523   #    O2   0.04245000   0.45200500   0.27987000
  215 1     6      0.00000      2.23606      7.04685     14.07907   #    O3   0.12885000   0.27016000   0.24962000
  216 1     6      0.00000      2.94931      6.05149     15.92990   #    O4   0.16995000   0.23200000   0.28243500
  217 1     6      0.00000      0.05033      8.80739      0.16187   #    O5   0.00290000   0.33765500   0.00287000
  218 1     6      0.00000      0.73668      7.77290     26.51627   #    O6   0.04245000   0.29799500   0.47013000
  219 1     6      0.00000      2.23606     12.51615      0.02143   #    O7   0.12885000   0.47984000   0.00038000
  220 1     6      0.00000      2.94931      0.46951     26.37160   #    O8   0.16995000   0.01800000   0.46756500
  221 1     6      0.00000      4.28817      2.28639     28.03913   #    O9   0.24710000   0.08765500   0.49713000
  222 1     6      0.00000      3.60182      1.25190      1.68473   #   O10   0.20755000   0.04799500   0.02987000
  223 1     6      0.00000      2.10244      5.99515     28.17957   #   O11   0.12115000   0.22984000   0.49962000
  224 1     6      0.00000      1.38919      6.99051      1.82940   #   O12   0.08005000   0.26800000   0.03243500
  225 1     6      0.00000      4.28817      4.23461     14.26237   #   O13   0.24710000   0.16234500   0.25287000
  226 1     6      0.00000      3.60182      5.26910     12.41577   #   O14   0.20755000   0.20200500   0.22013000