Created by Ryther's code on 2025-08-05 19:07:15.946936, modified by xyan11@uic.edu. 

    592 atoms
    696 bonds
    1472 angles
    1312 dihedrals
    224 impropers

    10 atom types
    21 bond types
    39 angle types
    12 dihedral types
    3 improper types

0.00000000 38.50278934 xlo xhi
0.00000000 20.59856354 ylo yhi
0.00000000 20.53740557 zlo zhi
-0.0237887 0.01783074 1.59139403 xy xz yz 

Masses 

    1    12.0107  #   C
    2    12.0107  #   C
    3    1.00794  #   H
    4    14.0067  #   N
    5    14.0067  #   N
    6    14.0067  #   N
    7    15.9994  #   O
    8    15.9994  #   O
    9    15.9994  #   O
   10      65.38  #  Zn

Pair Coeffs

    1       0.10500      3.43085  #  C_3 C_3
    2       0.10500      3.43085  #  C_R C_R
    3       0.04400      2.57113  #  H_ H_
    4       0.06900      3.26069  #  N_2 N_2
    5       0.06900      3.26069  #  N_3 N_3
    6       0.06900      3.26069  #  N_R N_R
    7       0.06000      3.11815  #  O_1 O_1
    8       0.06000      3.11815  #  O_2_M O_2_M
    9       0.06000      3.11815  #  O_3 O_3
    10      0.12400      2.46155  #  Zn4+2 Zn4+2

Bond Coeffs

    1      48.90184      1.84943  #  H_ Zn4+2 bond order=0.5
    2     104.44141      2.12294  #  O_2_M Zn4+2 bond order=0.5
    3     103.61325      2.20128  #  N_2 Zn4+2 bond order=0.5
    4     357.44038      1.08142  #  C_R H_ bond order=1.0
    5     331.06939      1.10940  #  C_3 H_ bond order=1.0
    6      97.41657      1.20000  #  H_ H_ bond order=1.0
    7     527.90376      1.04442  #  H_ N_3 bond order=1.0
    8     931.53598      1.20133  #  C_R N_2 bond order=3.0
    9     462.65505      1.37926  #  C_R C_R bond order=1.5
    10    523.75938      1.32339  #  C_R C_R bond order=2.0
    11    369.94394      1.48600  #  C_3 C_R bond order=1.0
    12    572.46041      1.36631  #  C_R O_3 bond order=1.0
    13    391.66951      1.45800  #  C_R C_R bond order=1.0
    14    539.20166      1.39385  #  C_3 O_3 bond order=1.0
    15    706.67500      1.27367  #  C_R O_1 bond order=1.5
    16    560.26893      1.42319  #  C_R N_3 bond order=1.0
    17    528.59298      1.45107  #  C_3 N_3 bond order=1.0
    18    349.79590      1.51400  #  C_3 C_3 bond order=1.0
    19    561.44721      1.42220  #  C_R N_R bond order=1.0
    20    714.55744      1.26901  #  C_R O_2_M bond order=1.5
    21    968.67061      1.26107  #  N_R O_1 bond order=1.5

Angle Coeffs

    1  cosine/periodic         14.11273            1            4  #  H_ Zn4+2 H_
    2  cosine/periodic         36.20045            1            4  #  H_ Zn4+2 O_2_M
    3  cosine/periodic         37.39156            1            4  #  H_ Zn4+2 N_2
    4  cosine/periodic         97.36576            1            4  #  O_2_M Zn4+2 O_2_M
    5  cosine/periodic        101.82219            1            4  #  N_2 Zn4+2 O_2_M
    6  cosine/periodic         11.23300            1            1  #  Zn4+2 H_ Zn4+2
    7  cosine/periodic         10.90893            1            1  #  H_ H_ Zn4+2
    8  cosine/periodic         12.17707            1            1  #  H_ H_ H_
    9  cosine/periodic        179.74893           -1            3  #  C_R C_R N_2
    10 cosine/periodic        118.27773           -1            3  #  C_R C_R C_R
    11 cosine/periodic         99.13715           -1            3  #  C_3 C_R C_R
    12 cosine/periodic        104.90215           -1            3  #  C_3 C_R C_R
    13 cosine/periodic         61.73740           -1            3  #  C_R C_R H_
    14 cosine/periodic         57.28902           -1            3  #  C_R C_R H_
    15 cosine/periodic        111.29751           -1            3  #  C_R C_R C_R
    16 cosine/periodic        135.76992           -1            3  #  C_R C_R O_3
    17 cosine/periodic        102.18328           -1            3  #  C_R C_R C_R
    18 cosine/periodic        124.56037           -1            3  #  C_R C_R O_3
    19 fourier                 75.49653      0.34375      0.37500      0.28125  #  H_ C_3 H_
    20 fourier                121.77380      0.34375      0.37500      0.28125  #  C_R C_3 H_
    21 fourier                165.75867      0.34375      0.37500      0.28125  #  H_ C_3 O_3
    22 fourier                298.92298      0.34375      0.37500      0.28125  #  C_R C_3 O_3
    23 cosine/periodic        137.04263           -1            3  #  C_R C_R O_1
    24 cosine/periodic        129.92907           -1            3  #  C_R C_R N_3
    25 cosine/periodic        189.84281           -1            3  #  N_3 C_R O_1
    26 fourier                169.76232      0.34375      0.37500      0.28125  #  H_ C_3 N_3
    27 fourier                117.31542      0.34375      0.37500      0.28125  #  C_3 C_3 H_
    28 fourier                303.26422      0.34375      0.37500      0.28125  #  C_3 C_3 N_3
    29 cosine/periodic        141.32633           -1            3  #  C_R C_R N_R
    30 cosine/periodic        137.71425           -1            3  #  C_R C_R O_2_M
    31 cosine/periodic        206.77843           -1            3  #  O_2_M C_R O_2_M
    32 fourier                 84.89470      0.36401      0.41847      0.28800  #  C_R N_2 Zn4+2
    33 fourier                144.69505      0.31751      0.31322      0.27250  #  C_3 N_3 H_
    34 fourier                150.57460      0.31751      0.31322      0.27250  #  C_R N_3 H_
    35 fourier                268.48217      0.31751      0.31322      0.27250  #  C_3 N_3 C_R
    36 cosine/periodic        144.77301           -1            3  #  C_R N_R O_1
    37 cosine/periodic        210.67420           -1            3  #  O_1 N_R O_1
    38 fourier                320.94891      0.30023      0.26733      0.26675  #  C_3 O_3 C_R
    39 cosine/periodic         37.72922           -1            3  #  C_R O_2_M Zn4+2

Dihedral Coeffs

    1      27.96100           -1            2  #  X C_R N_2 X bond order=3.0
    2       6.73711           -1            2  #  X C_R C_R X bond order=1.5
    3       4.87169           -1            2  #  X C_R C_R X bond order=2.0
    4       0.16667           -1            6  #  X C_3 C_R X bond order=1.0
    5       0.23717           -1            2  #  X C_R O_3 X bond order=1.0
    6       1.25000           -1            2  #  X C_R C_R X bond order=1.0
    7       0.03255            1            3  #  X C_3 O_3 X bond order=1.0
    8       0.25000           -1            6  #  X C_R N_3 X bond order=1.0
    9       0.08138            1            3  #  X C_3 N_3 X bond order=1.0
    10      0.11772            1            3  #  X C_3 C_3 X bond order=1.0
    11      1.25000           -1            2  #  X C_R N_R X bond order=1.0
    12      6.73711           -1            2  #  X C_R O_2_M X bond order=1.5

Improper Coeffs

    1       2.00000      1.00000     -1.00000      0.00000            1  #  C_R X X X O_2 present=False
    2      16.66667      1.00000     -1.00000      0.00000            1  #  C_R X X X O_2 present=True
    3       2.00000      1.00000     -1.00000      0.00000            1  #  N_R X X X O_2 present=False

Atoms # a, b, c, alpha, beta, gamma: 38.5027893419, 20.5985772787, 20.5989776548, 85.5692042558, 89.9504040365, 90.0661692516 $$$atoms$$$

    1 1     10     0.00000     14.58683      4.81312      5.81530   #   Zn1   0.37885084   0.21178715   0.28315672
    2 1     10     0.00000     17.51722      4.81751      5.81236   #   Zn2   0.45495957   0.21201121   0.28301335
    3 1     3      0.00000      9.90114      4.07192      3.78633   #    H1   0.25718172   0.18343663   0.18436255
    4 1     3      0.00000      7.40500      3.85118      3.76832   #    H2   0.19234538   0.17278773   0.18348585
    5 1     3      0.00000      5.53032      4.61558      7.84394   #    H3   0.14357769   0.19456566   0.38193422
    6 1     3      0.00000      3.07878      4.65485      7.89461   #    H4   0.07990567   0.19628162   0.38440150
    7 1     3      0.00000      2.98113      4.92034      3.59716   #    H5   0.07748448   0.22533624   0.17515169
    8 1     3      0.00000      5.42409      4.90923      3.52980   #    H6   0.14093464   0.22505029   0.17187179
    9 1     3      0.00000      9.65263      5.85843      7.59027   #    H7   0.25068640   0.25585658   0.36958277
   10 1     3      0.00000      9.32954      4.09017      7.71847   #    H8   0.24223877   0.16953064   0.37582513
   11 1     3      0.00000     16.20941      4.26415      6.32752   #    H9   0.42096370   0.18320913   0.30809752
   12 1     3      0.00000     15.42311      1.81553      3.97803   #   H10   0.40052668   0.07317423   0.19369666
   13 1     3      0.00000     15.44580      7.81596      3.96194   #   H11   0.40129635   0.36453822   0.19291324
   14 1     3      0.00000     16.60047      9.96565      7.50259   #   H12   0.43126221   0.45557986   0.36531326
   15 1     3      0.00000     16.20505      5.36683      6.32723   #   H13   0.42088344   0.23674220   0.30808342
   16 1     3      0.00000     15.91289      1.47887      1.79662   #   H14   0.41329147   0.06503642   0.08748052
   17 1     3      0.00000     13.53868      0.82175      0.24850   #   H15   0.35164711   0.03895870   0.01209963
   18 1     3      0.00000     14.94251     10.99768      9.85194   #   H16   0.38817385   0.49684419   0.47970719
   19 1     3      0.00000     14.81527      3.75812     10.24443   #   H17   0.38464225   0.14390804   0.49881821
   20 1     3      0.00000     16.22293      2.83575      9.57250   #   H18   0.42119111   0.10165751   0.46610093
   21 1     3      0.00000     14.65419      2.87278      8.67830   #   H19   0.38047099   0.10681923   0.42256077
   22 1     3      0.00000     16.54815      4.57050      5.27938   #   H20   0.42979672   0.20202423   0.25706153
   23 1     3      0.00000     14.24772      5.31730      2.76642   #   H21   0.37013448   0.24773243   0.13470146
   24 1     3      0.00000     14.25260      5.78114      8.75085   #   H22   0.37012636   0.24773862   0.42609342
   25 1     3      0.00000     17.69307      3.74732      0.72998   #   H23   0.45962125   0.17917519   0.03554410
   26 1     3      0.00000     16.54893      4.65575      6.37875   #   H24   0.42979224   0.20202756   0.31059175
   27 1     2      0.00000     11.43038      4.77228      5.80327   #    C1   0.29687016   0.20984947   0.28257067
   28 1     2      0.00000      9.99086      4.72536      5.78651   #    C2   0.25948188   0.20763480   0.28175448
   29 1     2      0.00000      9.34802      4.33314      4.68120   #    C3   0.24280161   0.19275171   0.22793515
   30 1     2      0.00000      7.87930      4.26257      4.64889   #    C4   0.20465455   0.18944704   0.22636205
   31 1     2      0.00000      7.16260      4.71999      5.68710   #    C5   0.18602815   0.20774819   0.27691406
   32 1     2      0.00000      5.67733      4.73238      5.68413   #    C6   0.14745309   0.20836086   0.27676980
   33 1     2      0.00000      4.98794      4.68229      6.90884   #    C7   0.12951599   0.20132177   0.33640258
   34 1     2      0.00000      3.59033      4.70179      6.94063   #    C8   0.09321700   0.20214881   0.33795049
   35 1     2      0.00000      2.86149      4.78128      5.74920   #    C9   0.07431940   0.21048992   0.27993809
   36 1     2      0.00000      1.42253      4.80308      5.78310   #   C10   0.03694644   0.21142070   0.28158859
   37 1     2      0.00000      3.53571      4.84655      4.52509   #   C11   0.09186290   0.21826315   0.22033382
   38 1     2      0.00000      4.93351      4.82618      4.49012   #   C12   0.12816688   0.21740601   0.21863134
   39 1     1      0.00000      9.22853      4.97927      7.06080   #   C13   0.23965848   0.21516764   0.34380202
   40 1     2      0.00000     16.05790      0.88740      5.81324   #   C14   0.41694022   0.02121229   0.28305622
   41 1     2      0.00000     15.62265      0.87702      4.47787   #   C15   0.40566871   0.02573179   0.21803500
   42 1     2      0.00000     15.40043      9.96405      3.79862   #   C16   0.40018670   0.46943574   0.18496087
   43 1     2      0.00000     15.61076      8.75325      4.47953   #   C17   0.40559599   0.40809337   0.21811573
   44 1     2      0.00000     16.04626      8.74325      5.81443   #   C18   0.41687352   0.40258640   0.28311415
   45 1     2      0.00000     16.26442      9.96522      6.47281   #   C19   0.42255979   0.45943295   0.31517199
   46 1     2      0.00000     14.93639      9.94872      2.38977   #   C20   0.38816902   0.47399159   0.11636186
   47 1     1      0.00000     14.64662      0.80264      0.16297   #   C21   0.38042427   0.03835285   0.00793512
   48 1     1      0.00000     15.11810      2.84642      9.68679   #   C22   0.39249381   0.10174579   0.47166554
   49 1     2      0.00000     16.04866      4.51188      1.89764   #   C23   0.41690621   0.21189986   0.09239939
   50 1     2      0.00000     14.74853      5.04061      1.84763   #   C24   0.38315606   0.23775639   0.08996433
   51 1     2      0.00000     14.08820      5.21557      0.62009   #   C25   0.36604174   0.25086788   0.03019316
   52 1     2      0.00000     14.75547      5.64905      9.70043   #   C26   0.38315931   0.23775385   0.47232970
   53 1     2      0.00000     16.05551      5.11877      9.73003   #   C27   0.41690751   0.21189881   0.47377099
   54 1     2      0.00000     16.69027      4.15574      0.69920   #   C28   0.43358927   0.19911870   0.03404527
   55 1     2      0.00000     16.05426      4.95076      8.24953   #   C29   0.41690695   0.20931211   0.40168319
   56 1     2      0.00000     16.04981      4.67989      3.37814   #   C30   0.41690429   0.21448707   0.16448695
   57 1     2      0.00000     16.04835      7.25421      5.76106   #   C31   0.41688433   0.33049857   0.28051560
   58 1     2      0.00000     16.05572      2.37643      5.86660   #   C32   0.41692689   0.09329983   0.28565458
   59 1     4      0.00000     12.58692      4.81013      5.81721   #    N1   0.32690881   0.21163472   0.28324933
   60 1     4      0.00000      0.26573      4.82061      5.81035   #    N2   0.00690160   0.21216896   0.28291543
   61 1     5      0.00000     15.23583      0.74009      1.50052   #    N3   0.39569215   0.03028469   0.07306293
   62 1     6      0.00000     12.75483      5.75895      0.58334   #    N4   0.33142840   0.27738564   0.02840388
   63 1     9      0.00000      7.83835      5.21428      6.81359   #    O1   0.20356570   0.22750683   0.33176499
   64 1     7      0.00000     14.29180      8.95180      1.96195   #    O2   0.37140831   0.42720333   0.09553056
   65 1     7      0.00000     12.11090      6.11332      1.74688   #    O3   0.31468585   0.29021248   0.08505863
   66 1     7      0.00000     12.16968      6.71342      9.76529   #    O4   0.31603123   0.28918164   0.47548815
   67 1     8      0.00000     17.16226      4.73788      3.87388   #    O5   0.44578651   0.21543756   0.18862578
   68 1     8      0.00000     17.16591      4.89609      7.75154   #    O6   0.44578949   0.20853119   0.37743535
   69 1     8      0.00000     17.16112      6.75615      5.74209   #    O7   0.44577084   0.30639079   0.27959167
   70 1     8      0.00000     17.16705      2.87782      5.88334   #    O8   0.44580514   0.11757797   0.28646942
   71 1     8      0.00000     14.93699      6.75281      5.74433   #    O9   0.38800525   0.30622039   0.27970066
   72 1     8      0.00000     14.94178      4.89277      7.75378   #   O10   0.38802390   0.20836157   0.37754431
   73 1     8      0.00000     14.93813      4.73456      3.87611   #   O11   0.38802092   0.21526793   0.18873396
   74 1     8      0.00000     14.94292      2.87450      5.88556   #   O12   0.38803955   0.11740833   0.28657764
   75 1     10     0.00000     14.59574      5.60882     16.08401   #   Zn1   0.37885084   0.21178715   0.78315672
   76 1     10     0.00000     17.52613      5.61321     16.08106   #   Zn2   0.45495957   0.21201121   0.78301335
   77 1     3      0.00000      9.91005      4.86762     14.05503   #    H1   0.25718172   0.18343663   0.68436255
   78 1     3      0.00000      7.41391      4.64687     14.03703   #    H2   0.19234538   0.17278773   0.68348585
   79 1     3      0.00000      5.53924      5.41128     18.11264   #    H3   0.14357769   0.19456566   0.88193422
   80 1     3      0.00000      3.08769      5.45055     18.16331   #    H4   0.07990567   0.19628162   0.88440150
   81 1     3      0.00000      2.99005      5.71604     13.86586   #    H5   0.07748448   0.22533624   0.67515169
   82 1     3      0.00000      5.43300      5.70493     13.79850   #    H6   0.14093464   0.22505029   0.67187179
   83 1     3      0.00000      9.66154      6.65413     17.85897   #    H7   0.25068640   0.25585658   0.86958277
   84 1     3      0.00000      9.33845      4.88587     17.98718   #    H8   0.24223877   0.16953064   0.87582513
   85 1     3      0.00000     16.21833      5.05985     16.59623   #    H9   0.42096370   0.18320913   0.80809752
   86 1     3      0.00000     15.43202      2.61123     14.24673   #   H10   0.40052668   0.07317423   0.69369666
   87 1     3      0.00000     15.45471      8.61166     14.23064   #   H11   0.40129635   0.36453822   0.69291324
   88 1     3      0.00000     16.60939     10.76135     17.77129   #   H12   0.43126221   0.45557986   0.86531326
   89 1     3      0.00000     16.21396      6.16253     16.59594   #   H13   0.42088344   0.23674220   0.80808342
   90 1     3      0.00000     15.92180      2.27457     12.06533   #   H14   0.41329147   0.06503642   0.58748052
   91 1     3      0.00000     13.54760      1.61745     10.51720   #   H15   0.35164711   0.03895870   0.51209963
   92 1     3      0.00000     14.95143     11.79338     20.12064   #   H16   0.38817385   0.49684419   0.97970719
   93 1     3      0.00000     14.82419      4.55381     20.51313   #   H17   0.38464225   0.14390804   0.99881821
   94 1     3      0.00000     16.23184      3.63145     19.84121   #   H18   0.42119111   0.10165751   0.96610093
   95 1     3      0.00000     14.66310      3.66848     18.94700   #   H19   0.38047099   0.10681923   0.92256077
   96 1     3      0.00000     16.55707      5.36619     15.54808   #   H20   0.42979672   0.20202423   0.75706153
   97 1     3      0.00000     14.25663      6.11299     13.03512   #   H21   0.37013448   0.24773243   0.63470146
   98 1     3      0.00000     14.26152      6.57684     19.01956   #   H22   0.37012636   0.24773862   0.92609342
   99 1     3      0.00000     17.70199      4.54301     10.99869   #   H23   0.45962125   0.17917519   0.53554410
  100 1     3      0.00000     16.55785      5.45145     16.64745   #   H24   0.42979224   0.20202756   0.81059175
  101 1     2      0.00000     11.43929      5.56798     16.07197   #    C1   0.29687016   0.20984947   0.78257067
  102 1     2      0.00000      9.99978      5.52106     16.05521   #    C2   0.25948188   0.20763480   0.78175448
  103 1     2      0.00000      9.35693      5.12884     14.94990   #    C3   0.24280161   0.19275171   0.72793515
  104 1     2      0.00000      7.88822      5.05827     14.91759   #    C4   0.20465455   0.18944704   0.72636205
  105 1     2      0.00000      7.17151      5.51569     15.95580   #    C5   0.18602815   0.20774819   0.77691406
  106 1     2      0.00000      5.68625      5.52808     15.95284   #    C6   0.14745309   0.20836086   0.77676980
  107 1     2      0.00000      4.99685      5.47799     17.17754   #    C7   0.12951599   0.20132177   0.83640258
  108 1     2      0.00000      3.59925      5.49748     17.20933   #    C8   0.09321700   0.20214881   0.83795049
  109 1     2      0.00000      2.87040      5.57698     16.01790   #    C9   0.07431940   0.21048992   0.77993809
  110 1     2      0.00000      1.43145      5.59878     16.05180   #   C10   0.03694644   0.21142070   0.78158859
  111 1     2      0.00000      3.54463      5.64224     14.79379   #   C11   0.09186290   0.21826315   0.72033382
  112 1     2      0.00000      4.94242      5.62188     14.75882   #   C12   0.12816688   0.21740601   0.71863134
  113 1     1      0.00000      9.23745      5.77497     17.32950   #   C13   0.23965848   0.21516764   0.84380202
  114 1     2      0.00000     16.06682      1.68309     16.08194   #   C14   0.41694022   0.02121229   0.78305622
  115 1     2      0.00000     15.63157      1.67271     14.74658   #   C15   0.40566871   0.02573179   0.71803500
  116 1     2      0.00000     15.40935     10.75974     14.06732   #   C16   0.40018670   0.46943574   0.68496087
  117 1     2      0.00000     15.61967      9.54894     14.74823   #   C17   0.40559599   0.40809337   0.71811573
  118 1     2      0.00000     16.05518      9.53894     16.08313   #   C18   0.41687352   0.40258640   0.78311415
  119 1     2      0.00000     16.27334     10.76092     16.74152   #   C19   0.42255979   0.45943295   0.81517199
  120 1     2      0.00000     14.94530     10.74442     12.65847   #   C20   0.38816902   0.47399159   0.61636186
  121 1     1      0.00000     14.65554      1.59834     10.43167   #   C21   0.38042427   0.03835285   0.50793512
  122 1     1      0.00000     15.12701      3.64212     19.95549   #   C22   0.39249381   0.10174579   0.97166554
  123 1     2      0.00000     16.05757      5.30757     12.16635   #   C23   0.41690621   0.21189986   0.59239939
  124 1     2      0.00000     14.75744      5.83631     12.11634   #   C24   0.38315606   0.23775639   0.58996433
  125 1     2      0.00000     14.09711      6.01126     10.88879   #   C25   0.36604174   0.25086788   0.53019316
  126 1     2      0.00000     14.76438      6.44475     19.96913   #   C26   0.38315931   0.23775385   0.97232970
  127 1     2      0.00000     16.06442      5.91446     19.99873   #   C27   0.41690751   0.21189881   0.97377099
  128 1     2      0.00000     16.69918      4.95144     10.96790   #   C28   0.43358927   0.19911870   0.53404527
  129 1     2      0.00000     16.06318      5.74646     18.51823   #   C29   0.41690695   0.20931211   0.90168319
  130 1     2      0.00000     16.05872      5.47559     13.64684   #   C30   0.41690429   0.21448707   0.66448695
  131 1     2      0.00000     16.05726      8.04990     16.02977   #   C31   0.41688433   0.33049857   0.78051560
  132 1     2      0.00000     16.06464      3.17213     16.13531   #   C32   0.41692689   0.09329983   0.78565458
  133 1     4      0.00000     12.59583      5.60583     16.08591   #    N1   0.32690881   0.21163472   0.78324933
  134 1     4      0.00000      0.27464      5.61630     16.07905   #    N2   0.00690160   0.21216896   0.78291543
  135 1     5      0.00000     15.24475      1.53579     11.76923   #    N3   0.39569215   0.03028469   0.57306293
  136 1     6      0.00000     12.76374      6.55464     10.85204   #    N4   0.33142840   0.27738564   0.52840388
  137 1     9      0.00000      7.84727      6.00998     17.08229   #    O1   0.20356570   0.22750683   0.83176499
  138 1     7      0.00000     14.30071      9.74750     12.23065   #    O2   0.37140831   0.42720333   0.59553056
  139 1     7      0.00000     12.11981      6.90902     12.01559   #    O3   0.31468585   0.29021248   0.58505863
  140 1     7      0.00000     12.17860      7.50911     20.03400   #    O4   0.31603123   0.28918164   0.97548815
  141 1     8      0.00000     17.17118      5.53358     14.14259   #    O5   0.44578651   0.21543756   0.68862578
  142 1     8      0.00000     17.17482      5.69179     18.02025   #    O6   0.44578949   0.20853119   0.87743535
  143 1     8      0.00000     17.17003      7.55185     16.01079   #    O7   0.44577084   0.30639079   0.77959167
  144 1     8      0.00000     17.17597      3.67352     16.15204   #    O8   0.44580514   0.11757797   0.78646942
  145 1     8      0.00000     14.94590      7.54851     16.01303   #    O9   0.38800525   0.30622039   0.77970066
  146 1     8      0.00000     14.95069      5.68847     18.02248   #   O10   0.38802390   0.20836157   0.87754431
  147 1     8      0.00000     14.94705      5.53026     14.14481   #   O11   0.38802092   0.21526793   0.68873396
  148 1     8      0.00000     14.95184      3.67020     16.15426   #   O12   0.38803955   0.11740833   0.78657764
  149 1     10     0.00000     14.57493     15.11241      5.81530   #   Zn1   0.37885084   0.71178715   0.28315672
  150 1     10     0.00000     17.50532     15.11679      5.81236   #   Zn2   0.45495957   0.71201121   0.28301335
  151 1     3      0.00000      9.88924     14.37121      3.78633   #    H1   0.25718172   0.68343663   0.18436255
  152 1     3      0.00000      7.39310     14.15046      3.76832   #    H2   0.19234538   0.67278773   0.18348585
  153 1     3      0.00000      5.51843     14.91486      7.84394   #    H3   0.14357769   0.69456566   0.38193422
  154 1     3      0.00000      3.06688     14.95414      7.89461   #    H4   0.07990567   0.69628162   0.38440150
  155 1     3      0.00000      2.96924     15.21962      3.59716   #    H5   0.07748448   0.72533624   0.17515169
  156 1     3      0.00000      5.41219     15.20851      3.52980   #    H6   0.14093464   0.72505029   0.17187179
  157 1     3      0.00000      9.64073     16.15771      7.59027   #    H7   0.25068640   0.75585658   0.36958277
  158 1     3      0.00000      9.31764     14.38946      7.71847   #    H8   0.24223877   0.66953064   0.37582513
  159 1     3      0.00000     16.19752     14.56343      6.32752   #    H9   0.42096370   0.68320913   0.30809752
  160 1     3      0.00000     15.41121     12.11481      3.97803   #   H10   0.40052668   0.57317423   0.19369666
  161 1     3      0.00000     15.43390     18.11525      3.96194   #   H11   0.40129635   0.86453822   0.19291324
  162 1     3      0.00000     16.58858     20.26493      7.50259   #   H12   0.43126221   0.95557986   0.36531326
  163 1     3      0.00000     16.19315     15.66611      6.32723   #   H13   0.42088344   0.73674220   0.30808342
  164 1     3      0.00000     15.90099     11.77815      1.79662   #   H14   0.41329147   0.56503642   0.08748052
  165 1     3      0.00000     13.52679     11.12103      0.24850   #   H15   0.35164711   0.53895870   0.01209963
  166 1     3      0.00000     14.93062     21.29696      9.85194   #   H16   0.38817385   0.99684419   0.47970719
  167 1     3      0.00000     14.80338     14.05740     10.24443   #   H17   0.38464225   0.64390804   0.49881821
  168 1     3      0.00000     16.21103     13.13503      9.57250   #   H18   0.42119111   0.60165751   0.46610093
  169 1     3      0.00000     14.64229     13.17207      8.67830   #   H19   0.38047099   0.60681923   0.42256077
  170 1     3      0.00000     16.53626     14.86978      5.27938   #   H20   0.42979672   0.70202423   0.25706153
  171 1     3      0.00000     14.23582     15.61658      2.76642   #   H21   0.37013448   0.74773243   0.13470146
  172 1     3      0.00000     14.24071     16.08042      8.75085   #   H22   0.37012636   0.74773862   0.42609342
  173 1     3      0.00000     17.68118     14.04660      0.72998   #   H23   0.45962125   0.67917519   0.03554410
  174 1     3      0.00000     16.53704     14.95503      6.37875   #   H24   0.42979224   0.70202756   0.31059175
  175 1     2      0.00000     11.41848     15.07156      5.80327   #    C1   0.29687016   0.70984947   0.28257067
  176 1     2      0.00000      9.97897     15.02464      5.78651   #    C2   0.25948188   0.70763480   0.28175448
  177 1     2      0.00000      9.33612     14.63242      4.68120   #    C3   0.24280161   0.69275171   0.22793515
  178 1     2      0.00000      7.86741     14.56185      4.64889   #    C4   0.20465455   0.68944704   0.22636205
  179 1     2      0.00000      7.15070     15.01928      5.68710   #    C5   0.18602815   0.70774819   0.27691406
  180 1     2      0.00000      5.66544     15.03167      5.68413   #    C6   0.14745309   0.70836086   0.27676980
  181 1     2      0.00000      4.97604     14.98157      6.90884   #    C7   0.12951599   0.70132177   0.33640258
  182 1     2      0.00000      3.57844     15.00107      6.94063   #    C8   0.09321700   0.70214881   0.33795049
  183 1     2      0.00000      2.84959     15.08056      5.74920   #    C9   0.07431940   0.71048992   0.27993809
  184 1     2      0.00000      1.41064     15.10236      5.78310   #   C10   0.03694644   0.71142070   0.28158859
  185 1     2      0.00000      3.52382     15.14583      4.52509   #   C11   0.09186290   0.71826315   0.22033382
  186 1     2      0.00000      4.92161     15.12546      4.49012   #   C12   0.12816688   0.71740601   0.21863134
  187 1     1      0.00000      9.21664     15.27855      7.06080   #   C13   0.23965848   0.71516764   0.34380202
  188 1     2      0.00000     16.04601     11.18668      5.81324   #   C14   0.41694022   0.52121229   0.28305622
  189 1     2      0.00000     15.61076     11.17630      4.47787   #   C15   0.40566871   0.52573179   0.21803500
  190 1     2      0.00000     15.38854     20.26333      3.79862   #   C16   0.40018670   0.96943574   0.18496087
  191 1     2      0.00000     15.59886     19.05253      4.47953   #   C17   0.40559599   0.90809337   0.21811573
  192 1     2      0.00000     16.03437     19.04253      5.81443   #   C18   0.41687352   0.90258640   0.28311415
  193 1     2      0.00000     16.25253     20.26450      6.47281   #   C19   0.42255979   0.95943295   0.31517199
  194 1     2      0.00000     14.92449     20.24801      2.38977   #   C20   0.38816902   0.97399159   0.11636186
  195 1     1      0.00000     14.63473     11.10192      0.16297   #   C21   0.38042427   0.53835285   0.00793512
  196 1     1      0.00000     15.10620     13.14570      9.68679   #   C22   0.39249381   0.60174579   0.47166554
  197 1     2      0.00000     16.03676     14.81116      1.89764   #   C23   0.41690621   0.71189986   0.09239939
  198 1     2      0.00000     14.73663     15.33989      1.84763   #   C24   0.38315606   0.73775639   0.08996433