ITEM: TIMESTEP
0
ITEM: NUMBER OF ATOMS
592
ITEM: BOX BOUNDS xy xz yz pp pp pp
-2.3788699999999999e-02 3.8520620080000000e+01 -2.3788699999999999e-02
0.0000000000000000e+00 2.2189957570000001e+01 1.7830740000000001e-02
0.0000000000000000e+00 2.0537405570000001e+01 1.5913940300000000e+00
ITEM: ATOMS id type element x y z q
4 3 H 7.22181 5.05488 3.81171 0
5 3 H 5.46213 4.72776 8.14141 0
6 3 H 3.0231 4.69348 8.30434 0
7 3 H 2.7295 4.24247 4.02872 0
8 3 H 5.16132 4.25861 3.85886 0
31 2 C 7.07465 4.54999 5.92288 0
32 2 C 5.54815 4.50984 5.98823 0
33 2 C 4.88743 4.61952 7.2304 0
34 2 C 3.47779 4.6017 7.32483 0
35 2 C 2.66107 4.47287 6.18365 0
36 2 C 1.24154 4.46321 6.34463 0
37 2 C 3.31097 4.35209 4.93582 0
38 2 C 4.7249 4.36687 4.84092 0
60 4 N 0.450101 4.37501 5.4259 0
30 2 C 7.75756 4.843 4.72541 0
1 10 Zn 14.4093 4.26333 6.22768 0
3 3 H 9.64494 5.18847 3.77193 0
9 3 H 9.69852 4.17667 7.88329 0
10 3 H 9.06654 2.86242 6.84605 0
21 3 H 14.6073 1.69407 9.53568 0
23 3 H 13.7482 6.28177 2.96854 0
24 3 H 15.3597 7.1851 8.46774 0
27 2 C 11.3156 4.56356 5.66172 0
28 2 C 9.89214 4.54258 5.76368 0
29 2 C 9.15807 4.89512 4.69582 0
39 1 C 9.12963 3.9671 6.95328 0
50 2 C 14.1015 5.86965 2.03 0
51 2 C 13.6317 6.41397 0.838582 0
59 4 N 12.0677 4.21117 6.54811 0
63 9 O 7.81187 4.5093 7.11372 0
71 8 O 14.7427 6.40423 5.95501 0
72 8 O 15.0734 4.46193 8.22277 0
73 8 O 14.4212 4.1691 4.1604 0
74 8 O 14.828 2.15845 6.21982 0
93 3 H 13.3693 0.223934 1.54663 0
122 1 C 13.5835 1.03942 0.825179 0
94 3 H 13.7395 1.98523 1.38529 0
49 2 C 15.0327 4.81047 2.03628 0
95 3 H 12.7079 1.16018 0.153354 0
52 2 C 15.5977 6.92305 9.49065 0
61 5 N 16.0099 0.621254 0.857624 0
2 10 Zn 17.3661 4.34085 5.79827 0
11 3 H 15.6348 4.29292 6.06366 0
12 3 H 16.0337 1.42059 3.312 0
15 3 H 15.6348 4.29293 6.06366 0
16 3 H 16.8635 0.692852 0.256508 0
22 3 H 16.2552 4.31739 5.98584 0
25 3 H 16.1991 3.44535 0.834611 0
26 3 H 16.5711 4.3235 5.9289 0
41 2 C 15.9877 0.450264 3.79237 0
53 2 C 16.2261 5.6951 9.76772 0
54 2 C 15.4999 4.27212 0.8354 0
55 2 C 16.2638 4.77703 8.64485 0
56 2 C 15.42 4.3127 3.34665 0
57 2 C 15.8774 6.97899 5.65728 0
58 2 C 15.9745 1.62094 5.91689 0
67 8 O 16.6811 4.26354 3.69795 0
68 8 O 17.3676 4.61497 7.96407 0
69 8 O 17.0347 6.39129 5.6482 0
70 8 O 17.1177 2.24318 5.90861 0
302 3 H 22.2745 4.69362 8.30425 0
303 3 H 21.9809 4.24302 4.02859 0
330 2 C 22.7292 4.60194 7.32473 0
331 2 C 21.9125 4.47321 6.18353 0
332 2 C 20.4929 4.46348 6.34449 0
333 2 C 22.5624 4.35256 4.9357 0
356 4 N 19.7015 4.37537 5.42575 0
166 3 H 17.0612 2.20508 9.32191 0
121 1 C 16.6929 1.51426 10.1088 0
299 3 H 28.8964 5.18892 3.77194 0
300 3 H 26.4732 5.05539 3.8117 0
301 3 H 24.7135 4.72793 8.14135 0
304 3 H 24.4127 4.25918 3.85875 0
305 3 H 28.9499 4.17697 7.88325 0
306 3 H 28.3179 2.86273 6.84597 0
323 2 C 30.567 4.56387 5.6617 0
324 2 C 29.1435 4.54293 5.76366 0
325 2 C 28.4095 4.89554 4.69581 0
326 2 C 27.009 4.84344 4.72538 0
327 2 C 26.326 4.55036 5.92283 0
328 2 C 24.7995 4.51021 5.98815 0
329 2 C 24.1388 4.61978 7.23033 0
334 2 C 23.9763 4.36735 4.84083 0
335 1 C 28.381 3.96741 6.95323 0
359 9 O 27.0632 4.50959 7.11368 0
297 10 Zn 33.6607 4.26347 6.22773 0
298 10 Zn 36.6175 4.34068 5.79839 0
307 3 H 34.8862 4.29294 6.06374 0
308 3 H 35.2841 1.42067 3.31203 0
311 3 H 34.8862 4.29294 6.06374 0
312 3 H 36.1131 0.693096 0.256299 0
317 3 H 33.8585 1.69396 9.53581 0
318 3 H 35.5065 4.31733 5.98594 0
319 3 H 33.0001 6.2822 2.96859 0
320 3 H 34.611 7.18506 8.46783 0
321 3 H 35.4504 3.44521 0.83472 0
322 3 H 35.8225 4.32341 5.929 0
337 2 C 35.2382 0.450329 3.79238 0
345 2 C 34.2842 4.81061 2.03635 0
346 2 C 33.3533 5.86998 2.03005 0
347 2 C 32.8836 6.41437 0.838621 0
348 2 C 34.8491 6.923 9.49075 0
349 2 C 35.4774 5.69504 9.76781 0
350 2 C 34.7514 4.27213 0.835491 0
351 2 C 35.5151 4.77696 8.64495 0
352 2 C 34.6715 4.31278 3.34673 0
353 2 C 35.129 6.97898 5.65739 0
354 2 C 35.2255 1.62092 5.91694 0
355 4 N 31.3191 4.21146 6.5481 0
357 5 N 35.2597 0.621438 0.857645 0
363 8 O 35.9326 4.26345 3.69807 0
364 8 O 36.6189 4.61481 7.9642 0
365 8 O 36.2863 6.39115 5.64832 0
366 8 O 36.3688 2.24301 5.90871 0
367 8 O 33.9942 6.40436 5.9551 0
368 8 O 34.3247 4.46195 8.22282 0
369 8 O 33.6726 4.16929 4.16044 0
370 8 O 34.0791 2.15857 6.21983 0
462 3 H 36.3124 2.20499 9.3219 0
389 3 H 32.6193 0.224261 1.54746 0
390 3 H 32.9895 1.98555 1.3859 0
417 1 C 35.9441 1.5142 10.1088 0
418 1 C 32.8333 1.0397 0.825904 0
391 3 H 31.9575 1.16047 0.154342 0
183 2 C 2.64634 14.7764 6.18343 0
184 2 C 1.22689 14.7696 6.34498 0
155 3 H 2.714 14.5051 4.03324 0
156 3 H 5.14576 14.5182 3.86222 0
185 2 C 3.29579 14.632 4.93788 0
186 2 C 4.70965 14.6451 4.84219 0
208 4 N 0.435363 14.6638 5.42823 0
62 6 N 12.698 7.51205 0.842594 0
65 7 O 12.2543 7.97425 1.93094 0
66 7 O 14.2544 9.34604 9.05034 0
158 3 H 9.05182 13.1784 6.87223 0
169 3 H 14.577 11.9944 9.53442 0
222 8 O 14.8064 12.4612 6.22091 0
149 10 Zn 14.3942 14.5671 6.22804 0
157 3 H 9.68436 14.5113 7.88515 0
187 1 C 9.11503 14.2849 6.95937 0
207 4 N 12.0527 14.5214 6.54866 0
221 8 O 14.4066 14.4726 4.16058 0
270 1 C 13.5421 11.3465 0.837824 0
242 3 H 13.7026 12.2918 1.39763 0
241 3 H 13.3293 10.5309 1.55967 0
220 8 O 15.0579 14.7642 8.22317 0
136 6 N 14.3548 8.91339 10.2321 0
243 3 H 12.6638 11.4694 0.169846 0
195 1 C 14.7764 11.0112 0.00552729 0
18 3 H 17.0316 12.5003 9.31692 0
46 2 C 16.0222 9.65667 1.53472 0
64 7 O 16.1579 8.58385 0.852279 0
209 5 N 15.9678 10.924 0.859539 0
13 3 H 15.9733 7.44556 3.09418 0
14 3 H 15.8266 9.38595 6.92463 0
42 2 C 15.9626 9.59102 3.01469 0
43 2 C 15.9273 8.3596 3.66909 0
44 2 C 15.8523 8.29011 5.06757 0
45 2 C 15.8464 9.44376 5.84374 0
159 3 H 15.6197 14.5932 6.06445 0
160 3 H 15.9965 11.7215 3.31402 0
164 3 H 16.8188 10.9952 0.254888 0
173 3 H 16.1825 13.7419 0.835848 0
188 2 C 15.9102 10.6725 5.19867 0
189 2 C 15.9543 10.7508 3.79398 0
202 2 C 15.487 14.5717 0.836333 0
206 2 C 15.9514 11.9201 5.919 0
218 8 O 17.0966 12.5389 5.91126 0
163 3 H 15.6197 14.5932 6.06445 0
170 3 H 16.2403 14.6158 5.98702 0
174 3 H 16.5562 14.6209 5.93024 0
215 8 O 16.6672 14.56 3.69957 0
479 2 C 21.8977 14.7761 6.18351 0
480 2 C 20.4783 14.7693 6.34508 0
239 3 H 16.712 10.7843 9.68003 0
269 1 C 16.6628 11.8122 10.1059 0
150 10 Zn 17.3513 14.6359 5.80001 0
204 2 C 15.4065 14.6131 3.34749 0
451 3 H 21.9654 14.5045 4.03334 0
481 2 C 22.5472 14.6315 4.93796 0
504 4 N 19.6867 14.6635 5.42835 0
454 3 H 28.3032 13.1781 6.87224 0
453 3 H 28.9358 14.5109 7.88514 0
483 1 C 28.3664 14.2846 6.95936 0
452 3 H 24.3971 14.5176 3.86228 0
482 2 C 23.961 14.6446 4.84225 0
358 6 N 31.9501 7.51262 0.842611 0
361 7 O 31.5063 7.97472 1.93093 0
362 7 O 33.5058 9.34601 9.05044 0
309 3 H 35.2256 7.44545 3.09429 0
310 3 H 35.078 9.386 6.92463 0
314 3 H 36.283 12.5003 9.31688 0
338 2 C 35.215 9.59091 3.01472 0
339 2 C 35.1795 8.35952 3.66915 0
340 2 C 35.1042 8.29009 5.06762 0
341 2 C 35.0981 9.44377 5.84375 0
342 2 C 35.2751 9.6565 1.53476 0
360 7 O 35.4109 8.58364 0.852399 0
455 3 H 34.8712 14.5931 6.06436 0
456 3 H 35.249 11.7214 3.31398 0
460 3 H 36.0721 10.9949 0.255092 0
465 3 H 33.8284 11.9945 9.53433 0
469 3 H 35.434 13.742 0.835732 0
484 2 C 35.1621 10.6724 5.19865 0
485 2 C 35.2066 10.7507 3.79396 0
498 2 C 34.7383 14.5717 0.836234 0
502 2 C 35.2032 11.9201 5.91894 0
505 5 N 35.2208 10.9238 0.859506 0
514 8 O 36.3482 12.539 5.91116 0
518 8 O 34.0581 12.4611 6.22087 0
445 10 Zn 33.6456 14.567 6.22798 0
459 3 H 34.8712 14.5931 6.06436 0
466 3 H 35.4917 14.6158 5.98691 0
470 3 H 35.8076 14.621 5.93014 0
503 4 N 31.3041 14.5211 6.54862 0
511 8 O 35.9186 14.56 3.69945 0
517 8 O 33.658 14.4724 4.16052 0
535 3 H 35.9634 10.7843 9.67993 0
538 3 H 32.9554 12.2915 1.39696 0
565 1 C 35.9141 11.8122 10.1059 0
566 1 C 32.7951 11.3462 0.83706 0
537 3 H 32.5821 10.5306 1.55881 0
446 10 Zn 36.6028 14.636 5.7999 0
500 2 C 34.6579 14.613 3.34741 0
516 8 O 34.3094 14.7641 8.22309 0
491 1 C 34.0297 11.011 0.00513579 0
432 6 N 33.6062 8.91336 10.2322 0
539 3 H 31.9171 11.4691 0.168811 0
153 3 H 5.44807 15.0688 8.13494 0
154 3 H 3.00908 15.0374 8.29941 0
181 2 C 4.87303 14.9432 7.22639 0
182 2 C 3.46343 14.927 7.32166 0
152 3 H 7.20573 15.3154 3.79946 0
179 2 C 7.05966 14.849 5.91952 0
180 2 C 5.53326 14.8099 5.98626 0
211 9 O 7.7974 14.83 7.11056 0
178 2 C 7.74196 15.1202 4.71658 0
151 3 H 9.62888 15.4482 3.75611 0
177 2 C 9.14244 15.1717 4.68538 0
171 3 H 13.7438 16.5896 2.96878 0
172 3 H 15.351 17.4862 8.46905 0
175 2 C 11.3004 14.8577 5.65625 0
176 2 C 9.87697 14.8387 5.75915 0
198 2 C 14.0954 16.1757 2.03036 0
199 2 C 13.6281 16.7217 0.838704 0
210 6 N 12.6985 17.8232 0.842307 0
213 7 O 12.253 18.2844 1.93032 0
214 7 O 14.2518 19.6501 9.05215 0
219 8 O 14.7341 16.7073 5.95505 0
197 2 C 15.0218 15.1124 2.03699 0
284 6 N 14.3502 19.2164 10.2337 0
40 2 C 15.9128 20.9714 5.19691 0
450 3 H 22.2605 15.0372 8.29946 0
478 2 C 22.7148 14.9268 7.32171 0
200 2 C 15.5884 17.2234 9.49194 0
190 2 C 15.9733 19.8885 3.01381 0
194 2 C 16.0392 19.9531 1.53407 0
212 7 O 16.1779 18.8797 0.853056 0
161 3 H 15.9791 17.743 3.09451 0
162 3 H 15.8176 19.6861 6.92312 0
191 2 C 15.9326 18.6576 3.66875 0
192 2 C 15.8509 18.5891 5.06693 0
193 2 C 15.8433 19.7432 5.84234 0
201 2 C 16.2134 15.9937 9.76885 0
203 2 C 16.249 15.0759 8.64582 0
205 2 C 15.8709 17.2783 5.65747 0
216 8 O 17.3527 14.9106 7.96562 0
217 8 O 17.0262 16.6868 5.64914 0
91 3 H 16.7206 21.086 9.68047 0
449 3 H 24.6995 15.0686 8.13494 0
477 2 C 24.1244 14.9429 7.22641 0
507 9 O 27.0488 14.8297 7.11055 0
447 3 H 28.8802 15.4478 3.75604 0
448 3 H 26.4571 15.3149 3.79942 0
473 2 C 28.3938 15.1713 4.68534 0
474 2 C 26.9933 15.1197 4.71655 0
471 2 C 30.5518 14.8574 5.65622 0
472 2 C 29.1284 14.8383 5.75912 0
475 2 C 26.311 14.8486 5.91952 0
476 2 C 24.7846 14.8096 5.98629 0
336 2 C 35.1637 20.9714 5.19693 0
457 3 H 35.2296 17.7431 3.0944 0
458 3 H 35.0691 19.686 6.92312 0
467 3 H 32.9948 16.5892 2.96872 0
468 3 H 34.6023 17.4862 8.46895 0
486 2 C 35.2237 19.8886 3.01378 0
487 2 C 35.1832 18.6576 3.66867 0
488 2 C 35.1019 18.5891 5.06687 0
489 2 C 35.0944 19.7432 5.84233 0
490 2 C 35.2892 19.9532 1.53403 0
493 2 C 34.2731 15.1123 2.03691 0
494 2 C 33.3464 16.1754 2.0303 0
495 2 C 32.8791 16.7213 0.838653 0
496 2 C 34.8397 17.2234 9.49184 0
497 2 C 35.4648 15.9938 9.76875 0
499 2 C 35.5004 15.0759 8.64572 0
501 2 C 35.122 17.2783 5.65737 0
506 6 N 31.9492 17.8227 0.842276 0
508 7 O 35.4278 18.8799 0.852931 0
509 7 O 31.504 18.284 1.93031 0
510 7 O 33.5031 19.6501 9.05203 0
512 8 O 36.6041 14.9108 7.96549 0
513 8 O 36.2775 16.6869 5.64903 0
515 8 O 33.9853 16.7072 5.95494 0
387 3 H 35.9719 21.0859 9.68056 0
580 6 N 33.6015 19.2164 10.2336 0
78 3 H 7.00027 5.14389 18.4491 0
79 3 H 5.30422 4.8627 14.1068 0
80 3 H 2.86572 4.86516 13.9149 0
81 3 H 2.52916 5.98331 18.0639 0
82 3 H 4.95921 5.99852 18.2585 0
105 2 C 6.88844 5.3886 16.2905 0
106 2 C 5.36507 5.41626 16.1998 0
107 2 C 4.71896 5.11204 14.9828 0
108 2 C 3.31055 5.11144 14.872 0
109 2 C 2.48294 5.41636 15.9709 0
110 2 C 1.06545 5.39503 15.8007 0
111 2 C 3.11958 5.7339 17.1908 0
112 2 C 4.53136 5.73661 17.3016 0
134 4 N 0.272989 5.62917 16.6917 0
104 2 C 7.55175 5.24459 17.5255 0
137 9 O 7.64319 5.28464 15.115 0
19 3 H 14.8739 1.26629 11.2759 0
48 1 C 15.2438 1.87319 10.427 0
20 3 H 15.1531 2.93821 10.7096 0
75 10 Zn 14.22 5.60124 16.0117 0
83 3 H 9.53907 5.5407 14.3381 0
84 3 H 8.88484 6.95933 15.2113 0
101 2 C 11.1214 5.39663 16.6086 0
102 2 C 9.7002 5.41762 16.4897 0
103 2 C 8.9513 5.19685 17.5822 0
113 1 C 8.9553 5.84997 15.2303 0
124 2 C 15.3653 7.34113 11.8297 0
133 4 N 11.8822 5.64365 15.6951 0
146 8 O 14.2996 5.66199 18.0956 0
147 8 O 14.8249 5.62802 14.006 0
148 8 O 14.6081 3.47235 15.9877 0
47 1 C 14.8399 2.29757 20.5358 0
127 2 C 15.0069 6.37238 20.1749 0
129 2 C 15.3291 5.81896 18.872 0
240 3 H 14.9876 3.11009 19.7926 0
77 3 H 9.42448 5.01545 18.5412 0
135 5 N 17.5293 1.65293 11.3085 0
76 10 Zn 17.1838 5.60653 16.3896 0
85 3 H 15.4451 5.59206 16.1751 0
86 3 H 16.7475 2.60906 13.5985 0
89 3 H 15.4451 5.59207 16.1751 0
90 3 H 18.523 1.79945 11.0151 0
96 3 H 16.0665 5.59748 16.2523 0
99 3 H 16.9125 4.34303 11.3094 0
100 3 H 16.3844 5.60069 16.2908 0
114 2 C 15.971 1.65192 15.3733 0
115 2 C 16.5409 1.66261 14.0862 0
123 2 C 16.0411 6.14287 12.1179 0
128 2 C 16.486 5.31133 11.0862 0
130 2 C 16.0197 5.72239 13.5049 0
132 2 C 15.7932 2.92784 16.0091 0
141 8 O 17.1274 5.64228 14.1957 0
142 8 O 16.575 5.70429 18.491 0
144 8 O 16.8991 3.54018 16.3135 0
376 3 H 22.1172 4.8655 13.9149 0
377 3 H 21.7805 5.98319 18.064 0
404 2 C 22.562 5.11167 14.872 0
405 2 C 21.7343 5.41647 15.9709 0
406 2 C 20.3168 5.39514 15.8007 0
407 2 C 22.3709 5.73388 17.1909 0
430 4 N 19.5244 5.62918 16.6917 0
374 3 H 26.2517 5.14413 18.4493 0
375 3 H 24.5557 4.86302 14.1069 0
378 3 H 24.2105 5.9984 18.2586 0
379 3 H 28.7905 5.54058 14.3383 0
380 3 H 28.1363 6.9593 15.2113 0
397 2 C 30.3728 5.39671 16.6088 0
398 2 C 28.9516 5.41769 16.4899 0
399 2 C 28.2027 5.197 17.5824 0
400 2 C 26.8031 5.24475 17.5257 0
401 2 C 26.1398 5.38867 16.2907 0
402 2 C 24.6165 5.41635 16.1999 0
403 2 C 23.9704 5.11226 14.9828 0
408 2 C 23.7827 5.73658 17.3017 0
409 1 C 28.2067 5.84994 15.2305 0
433 9 O 26.8946 5.28462 15.1151 0
373 3 H 28.6759 5.01569 18.5414 0
315 3 H 34.1251 1.26629 11.276 0
316 3 H 34.4044 2.93818 10.7097 0
343 1 C 34.0895 2.29776 20.5362 0
344 1 C 34.4951 1.87314 10.4271 0
371 10 Zn 33.4715 5.60124 16.0119 0
372 10 Zn 36.4353 5.60651 16.3897 0
381 3 H 34.6965 5.59205 16.1752 0
382 3 H 35.9989 2.60909 13.5986 0
385 3 H 34.6965 5.59206 16.1752 0
386 3 H 37.7743 1.79949 11.0151 0
392 3 H 35.318 5.59747 16.2523 0
395 3 H 36.1638 4.34295 11.3095 0
396 3 H 35.6358 5.60068 16.2908 0
410 2 C 35.2224 1.65193 15.3734 0
411 2 C 35.7923 1.66263 14.0863 0
419 2 C 35.2924 6.1428 12.118 0
420 2 C 34.6166 7.34106 11.8298 0
423 2 C 34.2585 6.37249 20.175 0
424 2 C 35.7374 5.31126 11.0863 0
425 2 C 34.5806 5.81899 18.8721 0
426 2 C 35.2711 5.72233 13.505 0
428 2 C 35.0446 2.92783 16.0091 0
429 4 N 31.1336 5.64365 15.6953 0
431 5 N 36.7806 1.65294 11.3085 0
437 8 O 36.3788 5.64222 14.1958 0
438 8 O 35.8265 5.7043 18.4911 0
440 8 O 36.1506 3.54017 16.3136 0
442 8 O 33.5511 5.66202 18.0958 0
443 8 O 34.0763 5.62799 14.0061 0
444 8 O 33.8595 3.47234 15.9878 0
536 3 H 34.2369 3.11024 19.7929 0
167 3 H 14.8443 11.5705 11.2753 0
196 1 C 15.2147 12.1746 10.4247 0
168 3 H 15.1266 13.2407 10.7047 0
97 3 H 14.9522 7.93312 12.637 0
98 3 H 13.7221 7.84366 19.2442 0
125 2 C 15.147 7.7468 10.5173 0
126 2 C 14.0951 7.4469 20.1818 0
139 7 O 13.6084 9.40474 11.1244 0
140 7 O 12.3342 9.62702 20.296 0
145 8 O 14.6427 7.74029 15.979 0
296 8 O 14.5893 13.7746 15.9881 0
165 3 H 14.6268 11.6622 19.9701 0
92 3 H 14.9399 13.415 19.7992 0
88 3 H 15.2412 10.7534 17.0231 0
143 8 O 16.9304 7.66113 16.2934 0
120 2 C 17.4573 10.754 12.0957 0
138 7 O 17.9401 9.66832 11.6227 0
283 5 N 17.5004 11.9524 11.3047 0
87 3 H 16.9153 8.63616 13.678 0
116 2 C 16.8527 10.7673 13.4479 0
117 2 C 16.6198 9.57447 14.1286 0
118 2 C 16.01 9.56996 15.3925 0
119 2 C 15.6674 10.7573 16.0262 0
131 2 C 15.8292 8.28354 16.0082 0
234 3 H 16.721 12.909 13.5961 0
238 3 H 18.4936 12.0998 11.0102 0
262 2 C 15.9482 11.9515 15.3724 0
263 2 C 16.5155 11.9625 14.0841 0
280 2 C 15.7731 13.2271 16.0093 0
292 8 O 16.8805 13.8366 16.3143 0
247 3 H 16.895 14.6391 11.3103 0
439 8 O 36.1818 7.66113 16.2934 0
461 3 H 33.8803 11.662 19.9696 0
463 3 H 34.0957 11.5705 11.2752 0
464 3 H 34.378 13.2407 10.7047 0
492 1 C 34.4661 12.1747 10.4246 0
393 3 H 34.2036 7.93305 12.6371 0
394 3 H 32.974 7.84399 19.2442 0
421 2 C 34.3984 7.74675 10.5174 0
422 2 C 33.3469 7.44718 20.1818 0
435 7 O 32.8598 9.40476 11.1245 0
383 3 H 36.1667 8.63613 13.678 0
384 3 H 34.4926 10.7534 17.0231 0
388 3 H 34.1935 13.4148 19.7989 0
412 2 C 36.104 10.7673 13.4478 0
413 2 C 35.8711 9.57444 14.1286 0
414 2 C 35.2614 9.56994 15.3925 0
415 2 C 34.9188 10.7572 16.0262 0
416 2 C 36.7086 10.7539 12.0957 0
427 2 C 35.0806 8.28354 16.0082 0
434 7 O 37.1913 9.66826 11.6226 0
436 7 O 31.5866 9.6278 20.296 0
441 8 O 33.8941 7.74029 15.9791 0
530 3 H 35.9723 12.909 13.596 0
534 3 H 37.745 12.0997 11.0101 0
558 2 C 35.1996 11.9514 15.3723 0
559 2 C 35.7668 11.9624 14.0841 0
576 2 C 35.0244 13.2271 16.0092 0
579 5 N 36.7517 11.9524 11.3046 0
588 8 O 36.1318 13.8366 16.3142 0
592 8 O 33.8407 13.7746 15.988 0
543 3 H 36.1464 14.6391 11.3102 0
227 3 H 5.29106 15.2079 14.0916 0
228 3 H 2.85256 15.2148 13.8999 0
226 3 H 6.98725 15.3945 18.4391 0
229 3 H 2.51617 16.2421 18.0722 0
230 3 H 4.9462 16.2528 18.2671 0
253 2 C 6.87538 15.6857 16.2863 0
254 2 C 5.35201 15.7156 16.1962 0
255 2 C 4.70584 15.4381 14.9728 0
256 2 C 3.29742 15.4401 14.8621 0
257 2 C 2.46986 15.721 15.9674 0
258 2 C 1.05236 15.7035 15.7968 0
259 2 C 3.10655 16.0118 17.1939 0
260 2 C 4.51834 16.0119 17.3047 0
282 4 N 0.259935 15.9183 16.6927 0
252 2 C 7.5387 15.5151 17.5178 0
285 9 O 7.63009 15.607 15.1087 0
231 3 H 9.52603 15.8792 14.3376 0
232 3 H 8.87213 17.279 15.2409 0
223 10 Zn 14.207 15.9044 16.0126 0
225 3 H 9.4114 15.2639 18.5283 0
245 3 H 14.9465 18.2353 12.6385 0
246 3 H 13.7182 18.1506 19.2443 0
249 2 C 11.1084 15.6867 16.6045 0
250 2 C 9.68717 15.7101 16.486 0
251 2 C 8.93824 15.4659 17.5735 0
261 1 C 8.94233 16.1695 15.2362 0
272 2 C 15.3575 17.6421 11.8311 0
273 2 C 15.1399 18.0482 10.5188 0
274 2 C 14.0894 17.7525 20.1821 0
281 4 N 11.8692 15.9531 15.6966 0
287 7 O 13.6026 19.7074 11.1252 0
288 7 O 12.339 19.9412 20.2956 0
293 8 O 14.6354 18.0425 15.9798 0
294 8 O 14.2869 15.9649 18.0967 0
295 8 O 14.8119 15.9297 14.0068 0
17 3 H 14.6529 21.9554 19.9625 0
236 3 H 15.2356 21.0529 17.0223 0
275 2 C 14.9966 16.6742 20.1756 0
277 2 C 15.3169 16.1193 18.8729 0
524 3 H 22.1039 15.2145 13.8999 0
268 2 C 17.4604 21.0526 12.0989 0
286 7 O 17.9422 19.9666 11.6257 0
224 10 Zn 17.1708 15.9022 16.3904 0
233 3 H 15.432 15.8922 16.1758 0
235 3 H 16.914 18.9344 13.6798 0
237 3 H 15.432 15.8922 16.1758 0
244 3 H 16.0535 15.8962 16.253 0
248 3 H 16.3714 15.8985 16.2915 0
264 2 C 16.8543 21.0659 13.4503 0
265 2 C 16.6191 19.873 14.1304 0
266 2 C 16.0073 19.8689 15.3934 0
267 2 C 15.6643 21.0564 16.0265 0
271 2 C 16.0296 16.4417 12.1191 0
276 2 C 16.4718 15.6088 11.0872 0
278 2 C 16.007 16.0211 13.5059 0
279 2 C 15.8234 18.5826 16.0086 0
289 8 O 17.1145 15.938 14.1967 0
290 8 O 16.5625 16.0015 18.4917 0
291 8 O 16.9229 17.9574 16.2938 0
525 3 H 21.7676 16.2422 18.0722 0
552 2 C 22.5488 15.4399 14.8621 0
553 2 C 21.7212 15.7209 15.9674 0
554 2 C 20.3038 15.7034 15.7969 0
555 2 C 22.358 16.0118 17.1939 0
578 4 N 19.5113 15.9183 16.6928 0
523 3 H 24.5424 15.2076 14.0916 0
527 3 H 28.7774 15.8793 14.3375 0
528 3 H 28.1235 17.279 15.2409 0
521 3 H 28.6628 15.2637 18.5282 0
522 3 H 26.2386 15.3943 18.439 0
526 3 H 24.1977 16.2529 18.267 0
545 2 C 30.3598 15.6866 16.6044 0
546 2 C 28.9386 15.7101 16.4859 0
547 2 C 28.1896 15.4658 17.5733 0
548 2 C 26.7901 15.5149 17.5177 0
549 2 C 26.1268 15.6857 16.2862 0
550 2 C 24.6034 15.7155 16.1961 0
551 2 C 23.9572 15.4379 14.9728 0
556 2 C 23.7698 16.0119 17.3047 0
557 1 C 28.1937 16.1695 15.2361 0
581 9 O 26.8815 15.6071 15.1086 0
313 3 H 33.9022 21.9556 19.9629 0
519 10 Zn 33.4584 15.9044 16.0125 0
520 10 Zn 36.4222 15.9022 16.3903 0
529 3 H 34.6834 15.8922 16.1757 0
531 3 H 36.1653 18.9344 13.6798 0
532 3 H 34.4871 21.0528 17.0223 0
533 3 H 34.6834 15.8922 16.1757 0
540 3 H 35.3049 15.8963 16.2529 0
541 3 H 34.1979 18.2353 12.6384 0
542 3 H 32.9692 18.1503 19.2443 0
544 3 H 35.6227 15.8985 16.2914 0
560 2 C 36.1057 21.0659 13.4504 0
561 2 C 35.8705 19.873 14.1304 0
562 2 C 35.2586 19.8689 15.3934 0
563 2 C 34.9157 21.0564 16.0265 0
564 2 C 36.7118 21.0526 12.0989 0
567 2 C 35.281 16.4417 12.119 0
568 2 C 34.6089 17.6421 11.831 0
569 2 C 34.3913 18.0482 10.5187 0
570 2 C 33.3404 17.7523 20.182 0
571 2 C 34.2478 16.6741 20.1756 0
572 2 C 35.7232 15.6089 11.0871 0
573 2 C 34.5682 16.1193 18.8728 0
574 2 C 35.2584 16.0211 13.5058 0
575 2 C 35.0747 18.5826 16.0086 0
577 4 N 31.1206 15.9531 15.6964 0
582 7 O 37.1936 19.9666 11.6257 0
583 7 O 32.8539 19.7073 11.1251 0
584 7 O 31.5895 19.9405 20.2956 0
585 8 O 36.3659 15.938 14.1966 0
586 8 O 35.8138 16.0015 18.4916 0
587 8 O 36.1743 17.9574 16.2938 0
589 8 O 33.8868 18.0425 15.9797 0
590 8 O 33.5382 15.9649 18.0966 0
591 8 O 34.0633 15.9298 14.0067 0
