Created by Ryther's code on 2025-07-31 16:51:45.649730, modified by xyan11@uic.edu. 

    1152 atoms
    1536 bonds
    3648 angles
    2880 dihedrals
    576 impropers

    6 atom types
    8 bond types
    17 angle types
    4 dihedral types
    3 improper types

0.00000000 21.924 xlo xhi
0.00000000 23.736 ylo yhi
0.00000000 38.614 zlo zhi
0.0 0.0 0.0 xy xz yz 

Masses 

    1    12.0107  #   C
    2    1.00794  #   H
    3    14.0067  #   N
    4    15.9994  #   O
    5    15.9994  #   O
    6     150.36  #  Sm

Pair Coeffs

    1       0.10500      3.43085  #  C_R C_R
    2       0.04400      2.57113  #  H_ H_
    3       0.06900      3.26069  #  N_R N_R
    4       0.06000      3.11815  #  O_1 O_1
    5       0.06000      3.11815  #  O_2_M O_2_M
    6       0.00800      3.13596  #  Sm8f4 Sm8f4

Bond Coeffs

    1     167.01138      2.47240  #  O_2_M Sm8f4 bond order=0.5
    2     158.36462      2.60256  #  N_R Sm8f4 bond order=0.5
    3     357.44038      1.08142  #  C_R H_ bond order=1.0
    4     663.66675      1.34507  #  C_R N_R bond order=1.5
    5     462.65505      1.37926  #  C_R C_R bond order=1.5
    6     391.66951      1.45800  #  C_R C_R bond order=1.0
    7     714.55744      1.26901  #  C_R O_2_M bond order=1.5
    8     706.67500      1.27367  #  C_R O_1 bond order=1.5

Angle Coeffs

    1  fourier                 71.17565      0.34375      0.37500      0.28125  #  O_2_M Sm8f4 O_2_M
    2  fourier                 72.72787      0.34375      0.37500      0.28125  #  N_R Sm8f4 O_2_M
    3  fourier                 74.64464      0.34375      0.37500      0.28125  #  N_R Sm8f4 N_R
    4  cosine/periodic         79.78069           -1            3  #  H_ C_R N_R
    5  cosine/periodic        212.40917           -1            3  #  N_R C_R N_R
    6  cosine/periodic        102.18328           -1            3  #  C_R C_R C_R
    7  cosine/periodic        153.68727           -1            3  #  C_R C_R N_R
    8  cosine/periodic        140.82706           -1            3  #  C_R C_R N_R
    9  cosine/periodic         57.28902           -1            3  #  C_R C_R H_
    10 cosine/periodic        111.29751           -1            3  #  C_R C_R C_R
    11 cosine/periodic        137.71425           -1            3  #  C_R C_R O_2_M
    12 cosine/periodic        206.77843           -1            3  #  O_2_M C_R O_2_M
    13 cosine/periodic        137.04263           -1            3  #  C_R C_R O_1
    14 cosine/periodic        205.62388           -1            3  #  O_1 C_R O_2_M
    15 cosine/periodic         57.54261           -1            3  #  C_R N_R Sm8f4
    16 cosine/periodic        120.00052           -1            3  #  C_R N_R C_R
    17 cosine/periodic         67.41787           -1            3  #  C_R O_2_M Sm8f4

Dihedral Coeffs

    1       3.36856           -1            2  #  X C_R N_R X bond order=1.5
    2       3.36856           -1            2  #  X C_R C_R X bond order=1.5
    3       1.25000           -1            2  #  X C_R C_R X bond order=1.0
    4       6.73711           -1            2  #  X C_R O_2_M X bond order=1.5

Improper Coeffs

    1       2.00000      1.00000     -1.00000      0.00000            1  #  C_R X X X O_2 present=False
    2      16.66667      1.00000     -1.00000      0.00000            1  #  C_R X X X O_2 present=True
    3       2.00000      1.00000     -1.00000      0.00000            1  #  N_R X X X O_2 present=False

Atoms # a, b, c, alpha, beta, gamma: 21.9240000000, 23.7360000000, 38.6140000000, 90.0000000000, 90.0000000000, 90.0000000000 $$$atoms$$$

    1 1     6      0.00000      3.97658      7.80511     11.60718   #   Sm1   0.18138000   0.32883000   0.30059500
    2 1     6      0.00000      9.65971      5.61261     15.74756   #   Sm2   0.44060000   0.23646000   0.40782000
    3 1     6      0.00000      6.98542      4.06289      1.95368   #   Sm3   0.31862000   0.17117000   0.05059500
    4 1     6      0.00000      1.30229      6.25539      6.09406   #   Sm4   0.05940000   0.26354000   0.15782000
    5 1     6      0.00000      1.50442      1.87111     11.60718   #   Sm5   0.06862000   0.07883000   0.30059500
    6 1     6      0.00000      6.78329     11.54661     15.74756   #   Sm6   0.30940000   0.48646000   0.40782000
    7 1     6      0.00000      9.45758      9.99689      1.95368   #   Sm7   0.43138000   0.42117000   0.05059500
    8 1     6      0.00000      4.17871      0.32139      6.09406   #   Sm8   0.19060000   0.01354000   0.15782000
    9 1     2      0.00000      1.62238      5.98978     13.65198   #    H1   0.07400000   0.25235000   0.35355000
   10 1     2      0.00000      2.96961      8.93186     16.79323   #    H2   0.13545000   0.37630000   0.43490000
   11 1     2      0.00000      6.88085      7.13979     13.80644   #    H3   0.31385000   0.30080000   0.35755000
   12 1     2      0.00000      5.42729      2.87206     13.54386   #    H4   0.24755000   0.12100000   0.35075000
   13 1     2      0.00000      9.33962      5.87822      3.99848   #    H5   0.42600000   0.24765000   0.10355000
   14 1     2      0.00000      7.99239      2.93614      7.13973   #    H6   0.36455000   0.12370000   0.18490000
   15 1     2      0.00000      4.08115      4.72821      4.15294   #    H7   0.18615000   0.19920000   0.10755000
   16 1     2      0.00000      5.53471      8.99594      3.89036   #    H8   0.25245000   0.37900000   0.10075000
   17 1     2      0.00000      3.85862      0.05578     13.65198   #    H9   0.17600000   0.00235000   0.35355000
   18 1     2      0.00000      2.51139      2.99786     16.79323   #   H10   0.11455000   0.12630000   0.43490000
   19 1     2      0.00000      9.56215      1.20579     13.80644   #   H11   0.43615000   0.05080000   0.35755000
   20 1     2      0.00000      0.05371      8.80606     13.54386   #   H12   0.00245000   0.37100000   0.35075000
   21 1     2      0.00000      7.10338     11.81222      3.99848   #   H13   0.32400000   0.49765000   0.10355000
   22 1     2      0.00000      8.45061      8.87014      7.13973   #   H14   0.38545000   0.37370000   0.18490000
   23 1     2      0.00000      1.39985     10.66221      4.15294   #   H15   0.06385000   0.44920000   0.10755000
   24 1     2      0.00000     10.90829      3.06194      3.89036   #   H16   0.49755000   0.12900000   0.10075000
   25 1     1      0.00000      1.86135      6.63659     14.27560   #    C1   0.08490000   0.27960000   0.36970000
   26 1     1      0.00000      1.48645      7.64418     16.26615   #    C2   0.06780000   0.32205000   0.42125000
   27 1     1      0.00000      2.66486      8.36575     16.12135   #    C3   0.12155000   0.35245000   0.41750000
   28 1     1      0.00000      3.35876      8.21266     14.95906   #    C4   0.15320000   0.34600000   0.38740000
   29 1     1      0.00000      4.52731      9.12293     14.60575   #    C5   0.20650000   0.38435000   0.37825000
   30 1     1      0.00000      0.56674      7.86611     17.45932   #    C6   0.02585000   0.33140000   0.45215000
   31 1     1      0.00000      6.58487      6.26037     13.75238   #    C7   0.30035000   0.26375000   0.35615000
   32 1     1      0.00000      6.86769      4.06954     14.28718   #    C8   0.31325000   0.17145000   0.37000000
   33 1     1      0.00000      5.72326      3.75147     13.60564   #    C9   0.26105000   0.15805000   0.35235000
   34 1     1      0.00000      5.02827      4.78043     13.01678   #   C10   0.22935000   0.20140000   0.33710000
   35 1     1      0.00000      3.71612      4.55138     12.28118   #   C11   0.16950000   0.19175000   0.31805000
   36 1     1      0.00000      7.71286      3.00379     14.97065   #   C12   0.35180000   0.12655000   0.38770000
   37 1     1      0.00000      9.01186      4.51221     18.74710   #   C13   0.41105000   0.19010000   0.48550000
   38 1     1      0.00000      7.67888      5.13291     18.28180   #   C14   0.35025000   0.21625000   0.47345000
   39 1     1      0.00000      9.10065      5.23141      4.62210   #   C15   0.41510000   0.22040000   0.11970000
   40 1     1      0.00000      9.47555      4.22382      6.61265   #   C16   0.43220000   0.17795000   0.17125000
   41 1     1      0.00000      8.29714      3.50225      6.46784   #   C17   0.37845000   0.14755000   0.16750000
   42 1     1      0.00000      7.60324      3.65534      5.30556   #   C18   0.34680000   0.15400000   0.13740000
   43 1     1      0.00000      6.43469      2.74507      4.95225   #   C19   0.29350000   0.11565000   0.12825000
   44 1     1      0.00000     10.39526      4.00189      7.80582   #   C20   0.47415000   0.16860000   0.20215000
   45 1     1      0.00000      4.37713      5.60763      4.09888   #   C21   0.19965000   0.23625000   0.10615000
   46 1     1      0.00000      4.09431      7.79846      4.63368   #   C22   0.18675000   0.32855000   0.12000000
   47 1     1      0.00000      5.23874      8.11653      3.95214   #   C23   0.23895000   0.34195000   0.10235000
   48 1     1      0.00000      5.93373      7.08757      3.36328   #   C24   0.27065000   0.29860000   0.08710000
   49 1     1      0.00000      7.24588      7.31662      2.62768   #   C25   0.33050000   0.30825000   0.06805000
   50 1     1      0.00000      3.24914      8.86421      5.31715   #   C26   0.14820000   0.37345000   0.13770000
   51 1     1      0.00000      1.95014      7.35579      9.09360   #   C27   0.08895000   0.30990000   0.23550000
   52 1     1      0.00000      3.28312      6.73509      8.62830   #   C28   0.14975000   0.28375000   0.22345000
   53 1     1      0.00000      3.61965      0.70259     14.27560   #   C29   0.16510000   0.02960000   0.36970000
   54 1     1      0.00000      3.99455      1.71018     16.26615   #   C30   0.18220000   0.07205000   0.42125000
   55 1     1      0.00000      2.81614      2.43175     16.12135   #   C31   0.12845000   0.10245000   0.41750000
   56 1     1      0.00000      2.12224      2.27866     14.95906   #   C32   0.09680000   0.09600000   0.38740000
   57 1     1      0.00000      0.95369      3.18893     14.60575   #   C33   0.04350000   0.13435000   0.37825000
   58 1     1      0.00000      4.91426      1.93211     17.45932   #   C34   0.22415000   0.08140000   0.45215000
   59 1     1      0.00000      9.85813      0.32637     13.75238   #   C35   0.44965000   0.01375000   0.35615000
   60 1     1      0.00000      9.57531     10.00354     14.28718   #   C36   0.43675000   0.42145000   0.37000000
   61 1     1      0.00000     10.71974      9.68547     13.60564   #   C37   0.48895000   0.40805000   0.35235000
   62 1     1      0.00000      0.45273     10.71443     13.01678   #   C38   0.02065000   0.45140000   0.33710000
   63 1     1      0.00000      1.76488     10.48538     12.28118   #   C39   0.08050000   0.44175000   0.31805000
   64 1     1      0.00000      8.73014      8.93779     14.97065   #   C40   0.39820000   0.37655000   0.38770000
   65 1     1      0.00000      7.43114     10.44621     18.74710   #   C41   0.33895000   0.44010000   0.48550000
   66 1     1      0.00000      8.76412     11.06691     18.28180   #   C42   0.39975000   0.46625000   0.47345000
   67 1     1      0.00000      7.34235     11.16541      4.62210   #   C43   0.33490000   0.47040000   0.11970000
   68 1     1      0.00000      6.96745     10.15782      6.61265   #   C44   0.31780000   0.42795000   0.17125000
   69 1     1      0.00000      8.14586      9.43625      6.46784   #   C45   0.37155000   0.39755000   0.16750000
   70 1     1      0.00000      8.83976      9.58934      5.30556   #   C46   0.40320000   0.40400000   0.13740000
   71 1     1      0.00000     10.00831      8.67907      4.95225   #   C47   0.45650000   0.36565000   0.12825000
   72 1     1      0.00000      6.04774      9.93589      7.80582   #   C48   0.27585000   0.41860000   0.20215000
   73 1     1      0.00000      1.10387     11.54163      4.09888   #   C49   0.05035000   0.48625000   0.10615000
   74 1     1      0.00000      1.38669      1.86446      4.63368   #   C50   0.06325000   0.07855000   0.12000000
   75 1     1      0.00000      0.24226      2.18253      3.95214   #   C51   0.01105000   0.09195000   0.10235000
   76 1     1      0.00000     10.50927      1.15357      3.36328   #   C52   0.47935000   0.04860000   0.08710000
   77 1     1      0.00000      9.19712      1.38262      2.62768   #   C53   0.41950000   0.05825000   0.06805000
   78 1     1      0.00000      2.23186      2.93021      5.31715   #   C54   0.10180000   0.12345000   0.13770000
   79 1     1      0.00000      3.53086      1.42179      9.09360   #   C55   0.16105000   0.05990000   0.23550000
   80 1     1      0.00000      2.19788      0.80109      8.62830   #   C56   0.10025000   0.03375000   0.22345000
   81 1     3      0.00000      2.96412      7.34511     14.02074   #    N1   0.13520000   0.30945000   0.36310000
   82 1     3      0.00000      1.07866      6.76951     15.32976   #    N2   0.04920000   0.28520000   0.39700000
   83 1     3      0.00000      5.46894      6.04200     13.04574   #    N3   0.24945000   0.25455000   0.33785000
   84 1     3      0.00000      7.31165      5.34535     14.38758   #    N4   0.33350000   0.22520000   0.37260000
   85 1     3      0.00000      7.99788      4.52289      4.36724   #    N5   0.36480000   0.19055000   0.11310000
   86 1     3      0.00000      9.88334      5.09849      5.67626   #    N6   0.45080000   0.21480000   0.14700000
   87 1     3      0.00000      5.49306      5.82600      3.39224   #    N7   0.25055000   0.24545000   0.08785000
   88 1     3      0.00000      3.65035      6.52265      4.73408   #    N8   0.16650000   0.27480000   0.12260000
   89 1     3      0.00000      2.51688      1.41111     14.02074   #    N9   0.11480000   0.05945000   0.36310000
   90 1     3      0.00000      4.40234      0.83551     15.32976   #   N10   0.20080000   0.03520000   0.39700000
   91 1     3      0.00000      0.01206      0.10800     13.04574   #   N11   0.00055000   0.00455000   0.33785000
   92 1     3      0.00000      9.13135     11.27935     14.38758   #   N12   0.41650000   0.47520000   0.37260000
   93 1     3      0.00000      8.44512     10.45689      4.36724   #   N13   0.38520000   0.44055000   0.11310000
   94 1     3      0.00000      6.55966     11.03249      5.67626   #   N14   0.29920000   0.46480000   0.14700000
   95 1     3      0.00000     10.94994     11.76000      3.39224   #   N15   0.49945000   0.49545000   0.08785000
   96 1     3      0.00000      1.83065      0.58865      4.73408   #   N16   0.08350000   0.02480000   0.12260000
   97 1     5      0.00000      4.98223      9.02087     13.44153   #    O1   0.22725000   0.38005000   0.34810000
   98 1     5      0.00000      4.93071      9.90147     15.50545   #    O2   0.22490000   0.41715000   0.40155000
   99 1     5      0.00000     10.47748      7.17421     17.48442   #    O3   0.47790000   0.30225000   0.45280000
  100 1     4      0.00000      0.92629      8.70162     18.27408   #    O4   0.04225000   0.36660000   0.47325000
  101 1     5      0.00000      3.22283      5.52574     11.64791   #    O5   0.14700000   0.23280000   0.30165000
  102 1     5      0.00000      3.19981      3.42392     12.42599   #    O6   0.14595000   0.14425000   0.32180000
  103 1     5      0.00000      8.76741      3.36933     15.52862   #    O7   0.39990000   0.14195000   0.40215000
  104 1     5      0.00000      7.30069      1.82649     14.90500   #    O8   0.33300000   0.07695000   0.38600000
  105 1     5      0.00000      9.04694      4.11226      0.62362   #    O9   0.41265000   0.17325000   0.01615000
  106 1     5      0.00000      9.96007      4.47186     17.89952   #   O10   0.45430000   0.18840000   0.46355000
  107 1     5      0.00000      6.68134      4.96794     19.00967   #   O11   0.30475000   0.20930000   0.49230000
  108 1     5      0.00000      7.71944      5.77734     17.18516   #   O12   0.35210000   0.24340000   0.44505000
  109 1     5      0.00000      5.97977      2.84713      3.78803   #   O13   0.27275000   0.11995000   0.09810000
  110 1     5      0.00000      6.03129      1.96653      5.85195   #   O14   0.27510000   0.08285000   0.15155000
  111 1     5      0.00000      0.48452      4.69379      7.83092   #   O15   0.02210000   0.19775000   0.20280000
  112 1     4      0.00000     10.03571      3.16638      8.62058   #   O16   0.45775000   0.13340000   0.22325000
  113 1     5      0.00000      7.73917      6.34226      1.99441   #   O17   0.35300000   0.26720000   0.05165000
  114 1     5      0.00000      7.76219      8.44408      2.77249   #   O18   0.35405000   0.35575000   0.07180000
  115 1     5      0.00000      2.19459      8.49867      5.87512   #   O19   0.10010000   0.35805000   0.15215000
  116 1     5      0.00000      3.66131     10.04151      5.25150   #   O20   0.16700000   0.42305000   0.13600000
  117 1     5      0.00000      1.91506      7.75574     10.27712   #   O21   0.08735000   0.32675000   0.26615000
  118 1     5      0.00000      1.00193      7.39614      8.24602   #   O22   0.04570000   0.31160000   0.21355000
  119 1     5      0.00000      4.28066      6.90006      9.35617   #   O23   0.19525000   0.29070000   0.24230000
  120 1     5      0.00000      3.24256      6.09066      7.53166   #   O24   0.14790000   0.25660000   0.19505000
  121 1     5      0.00000      0.49877      3.08687     13.44153   #   O25   0.02275000   0.13005000   0.34810000
  122 1     5      0.00000      0.55029      3.96747     15.50545   #   O26   0.02510000   0.16715000   0.40155000
  123 1     5      0.00000      5.96552      1.24021     17.48442   #   O27   0.27210000   0.05225000   0.45280000
  124 1     4      0.00000      4.55471      2.76762     18.27408   #   O28   0.20775000   0.11660000   0.47325000
  125 1     5      0.00000      2.25817     11.45974     11.64791   #   O29   0.10300000   0.48280000   0.30165000
  126 1     5      0.00000      2.28119      9.35792     12.42599   #   O30   0.10405000   0.39425000   0.32180000
  127 1     5      0.00000      7.67559      9.30333     15.52862   #   O31   0.35010000   0.39195000   0.40215000
  128 1     5      0.00000      9.14231      7.76049     14.90500   #   O32   0.41700000   0.32695000   0.38600000
  129 1     5      0.00000      7.39606     10.04626      0.62362   #   O33   0.33735000   0.42325000   0.01615000
  130 1     5      0.00000      6.48293     10.40586     17.89952   #   O34   0.29570000   0.43840000   0.46355000
  131 1     5      0.00000      9.76166     10.90194     19.00967   #   O35   0.44525000   0.45930000   0.49230000
  132 1     5      0.00000      8.72356     11.71134     17.18516   #   O36   0.39790000   0.49340000   0.44505000
  133 1     5      0.00000     10.46323      8.78113      3.78803   #   O37   0.47725000   0.36995000   0.09810000
  134 1     5      0.00000     10.41171      7.90053      5.85195   #   O38   0.47490000   0.33285000   0.15155000
  135 1     5      0.00000      4.99648     10.62779      7.83092   #   O39   0.22790000   0.44775000   0.20280000
  136 1     4      0.00000      6.40729      9.10038      8.62058   #   O40   0.29225000   0.38340000   0.22325000
  137 1     5      0.00000      8.70383      0.40826      1.99441   #   O41   0.39700000   0.01720000   0.05165000
  138 1     5      0.00000      8.68081      2.51008      2.77249   #   O42   0.39595000   0.10575000   0.07180000
  139 1     5      0.00000      3.28641      2.56467      5.87512   #   O43   0.14990000   0.10805000   0.15215000
  140 1     5      0.00000      1.81969      4.10751      5.25150   #   O44   0.08300000   0.17305000   0.13600000
  141 1     5      0.00000      3.56594      1.82174     10.27712   #   O45   0.16265000   0.07675000   0.26615000
  142 1     5      0.00000      4.47907      1.46214      8.24602   #   O46   0.20430000   0.06160000   0.21355000
  143 1     5      0.00000      1.20034      0.96606      9.35617   #   O47   0.05475000   0.04070000   0.24230000
  144 1     5      0.00000      2.23844      0.15666      7.53166   #   O48   0.10210000   0.00660000   0.19505000
  145 1     6      0.00000      3.97658      7.80511     30.91418   #   Sm1   0.18138000   0.32883000   0.80059500
  146 1     6      0.00000      9.65971      5.61261     35.05456   #   Sm2   0.44060000   0.23646000   0.90782000
  147 1     6      0.00000      6.98542      4.06289     21.26068   #   Sm3   0.31862000   0.17117000   0.55059500
  148 1     6      0.00000      1.30229      6.25539     25.40106   #   Sm4   0.05940000   0.26354000   0.65782000
  149 1     6      0.00000      1.50442      1.87111     30.91418   #   Sm5   0.06862000   0.07883000   0.80059500
  150 1     6      0.00000      6.78329     11.54661     35.05456   #   Sm6   0.30940000   0.48646000   0.90782000
  151 1     6      0.00000      9.45758      9.99689     21.26068   #   Sm7   0.43138000   0.42117000   0.55059500
  152 1     6      0.00000      4.17871      0.32139     25.40106   #   Sm8   0.19060000   0.01354000   0.65782000
  153 1     2      0.00000      1.62238      5.98978     32.95898   #    H1   0.07400000   0.25235000   0.85355000
  154 1     2      0.00000      2.96961      8.93186     36.10023   #    H2   0.13545000   0.37630000   0.93490000
  155 1     2      0.00000      6.88085      7.13979     33.11344   #    H3   0.31385000   0.30080000   0.85755000
  156 1     2      0.00000      5.42729      2.87206     32.85086   #    H4   0.24755000   0.12100000   0.85075000
  157 1     2      0.00000      9.33962      5.87822     23.30548   #    H5   0.42600000   0.24765000   0.60355000
  158 1     2      0.00000      7.99239      2.93614     26.44673   #    H6   0.36455000   0.12370000   0.68490000
  159 1     2      0.00000      4.08115      4.72821     23.45994   #    H7   0.18615000   0.19920000   0.60755000
  160 1     2      0.00000      5.53471      8.99594     23.19736   #    H8   0.25245000   0.37900000   0.60075000
  161 1     2      0.00000      3.85862      0.05578     32.95898   #    H9   0.17600000   0.00235000   0.85355000
  162 1     2      0.00000      2.51139      2.99786     36.10023   #   H10   0.11455000   0.12630000   0.93490000
  163 1     2      0.00000      9.56215      1.20579     33.11344   #   H11   0.43615000   0.05080000   0.85755000
  164 1     2      0.00000      0.05371      8.80606     32.85086   #   H12   0.00245000   0.37100000   0.85075000
  165 1     2      0.00000      7.10338     11.81222     23.30548   #   H13   0.32400000   0.49765000   0.60355000
  166 1     2      0.00000      8.45061      8.87014     26.44673   #   H14   0.38545000   0.37370000   0.68490000
  167 1     2      0.00000      1.39985     10.66221     23.45994   #   H15   0.06385000   0.44920000   0.60755000
  168 1     2      0.00000     10.90829      3.06194     23.19736   #   H16   0.49755000   0.12900000   0.60075000
  169 1     1      0.00000      1.86135      6.63659     33.58260   #    C1   0.08490000   0.27960000   0.86970000
  170 1     1      0.00000      1.48645      7.64418     35.57315   #    C2   0.06780000   0.32205000   0.92125000
  171 1     1      0.00000      2.66486      8.36575     35.42835   #    C3   0.12155000   0.35245000   0.91750000
  172 1     1      0.00000      3.35876      8.21266     34.26606   #    C4   0.15320000   0.34600000   0.88740000
  173 1     1      0.00000      4.52731      9.12293     33.91275   #    C5   0.20650000   0.38435000   0.87825000
  174 1     1      0.00000      0.56674      7.86611     36.76632   #    C6   0.02585000   0.33140000   0.95215000
  175 1     1      0.00000      6.58487      6.26037     33.05938   #    C7   0.30035000   0.26375000   0.85615000
  176 1     1      0.00000      6.86769      4.06954     33.59418   #    C8   0.31325000   0.17145000   0.87000000
  177 1     1      0.00000      5.72326      3.75147     32.91264   #    C9   0.26105000   0.15805000   0.85235000
  178 1     1      0.00000      5.02827      4.78043     32.32378   #   C10   0.22935000   0.20140000   0.83710000
  179 1     1      0.00000      3.71612      4.55138     31.58818   #   C11   0.16950000   0.19175000   0.81805000
  180 1     1      0.00000      7.71286      3.00379     34.27765   #   C12   0.35180000   0.12655000   0.88770000
  181 1     1      0.00000      9.01186      4.51221     38.05410   #   C13   0.41105000   0.19010000   0.98550000
  182 1     1      0.00000      7.67888      5.13291     37.58880   #   C14   0.35025000   0.21625000   0.97345000
  183 1     1      0.00000      9.10065      5.23141     23.92910   #   C15   0.41510000   0.22040000   0.61970000
  184 1     1      0.00000      9.47555      4.22382     25.91965   #   C16   0.43220000   0.17795000   0.67125000
  185 1     1      0.00000      8.29714      3.50225     25.77484   #   C17   0.37845000   0.14755000   0.66750000
  186 1     1      0.00000      7.60324      3.65534     24.61256   #   C18   0.34680000   0.15400000   0.63740000
  187 1     1      0.00000      6.43469      2.74507     24.25925   #   C19   0.29350000   0.11565000   0.62825000
  188 1     1      0.00000     10.39526      4.00189     27.11282   #   C20   0.47415000   0.16860000   0.70215000
  189 1     1      0.00000      4.37713      5.60763     23.40588   #   C21   0.19965000   0.23625000   0.60615000
  190 1     1      0.00000      4.09431      7.79846     23.94068   #   C22   0.18675000   0.32855000   0.62000000
  191 1     1      0.00000      5.23874      8.11653     23.25914   #   C23   0.23895000   0.34195000   0.60235000
  192 1     1      0.00000      5.93373      7.08757     22.67028   #   C24   0.27065000   0.29860000   0.58710000
  193 1     1      0.00000      7.24588      7.31662     21.93468   #   C25   0.33050000   0.30825000   0.56805000
  194 1     1      0.00000      3.24914      8.86421     24.62415   #   C26   0.14820000   0.37345000   0.63770000
  195 1     1      0.00000      1.95014      7.35579     28.40060   #   C27   0.08895000   0.30990000   0.73550000
  196 1     1      0.00000      3.28312      6.73509     27.93530   #   C28   0.14975000   0.28375000   0.72345000
  197 1     1      0.00000      3.61965      0.70259     33.58260   #   C29   0.16510000   0.02960000   0.86970000
  198 1     1      0.00000      3.99455      1.71018     35.57315   #   C30   0.18220000   0.07205000   0.92125000
  199 1     1      0.00000      2.81614      2.43175     35.42835   #   C31   0.12845000   0.10245000   0.91750000
  200 1     1      0.00000      2.12224      2.27866     34.26606   #   C32   0.09680000   0.09600000   0.88740000
  201 1     1      0.00000      0.95369      3.18893     33.91275   #   C33   0.04350000   0.13435000   0.87825000
  202 1     1      0.00000      4.91426      1.93211     36.76632   #   C34   0.22415000   0.08140000   0.95215000
  203 1     1      0.00000      9.85813      0.32637     33.05938   #   C35   0.44965000   0.01375000   0.85615000
  204 1     1      0.00000      9.57531     10.00354     33.59418   #   C36   0.43675000   0.42145000   0.87000000
  205 1     1      0.00000     10.71974      9.68547     32.91264   #   C37   0.48895000   0.40805000   0.85235000
  206 1     1      0.00000      0.45273     10.71443     32.32378   #   C38   0.02065000   0.45140000   0.83710000
  207 1     1      0.00000      1.76488     10.48538     31.58818   #   C39   0.08050000   0.44175000   0.81805000
  208 1     1      0.00000      8.73014      8.93779     34.27765   #   C40   0.39820000   0.37655000   0.88770000
  209 1     1      0.00000      7.43114     10.44621     38.05410   #   C41   0.33895000   0.44010000   0.98550000
  210 1     1      0.00000      8.76412     11.06691     37.58880   #   C42   0.39975000   0.46625000   0.97345000
  211 1     1      0.00000      7.34235     11.16541     23.92910   #   C43   0.33490000   0.47040000   0.61970000
  212 1     1      0.00000      6.96745     10.15782     25.91965   #   C44   0.31780000   0.42795000   0.67125000
  213 1     1      0.00000      8.14586      9.43625     25.77484   #   C45   0.37155000   0.39755000   0.66750000
  214 1     1      0.00000      8.83976      9.58934     24.61256   #   C46   0.40320000   0.40400000   0.63740000
  215 1     1      0.00000     10.00831      8.67907     24.25925   #   C47   0.45650000   0.36565000   0.62825000
  216 1     1      0.00000      6.04774      9.93589     27.11282   #   C48   0.27585000   0.41860000   0.70215000
  217 1     1      0.00000      1.10387     11.54163     23.40588   #   C49   0.05035000   0.48625000   0.60615000
  218 1     1      0.00000      1.38669      1.86446     23.94068   #   C50   0.06325000   0.07855000   0.62000000
  219 1     1      0.00000      0.24226      2.18253     23.25914   #   C51   0.01105000   0.09195000   0.60235000
  220 1     1      0.00000     10.50927      1.15357     22.67028   #   C52   0.47935000   0.04860000   0.58710000
  221 1     1      0.00000      9.19712      1.38262     21.93468   #   C53   0.41950000   0.05825000   0.56805000
  222 1     1      0.00000      2.23186      2.93021     24.62415   #   C54   0.10180000   0.12345000   0.63770000
  223 1     1      0.00000      3.53086      1.42179     28.40060   #   C55   0.16105000   0.05990000   0.73550000
  224 1     1      0.00000      2.19788      0.80109     27.93530   #   C56   0.10025000   0.03375000   0.72345000
  225 1     3      0.00000      2.96412      7.34511     33.32774   #    N1   0.13520000   0.30945000   0.86310000
  226 1     3      0.00000      1.07866      6.76951     34.63676   #    N2   0.04920000   0.28520000   0.89700000
  227 1     3      0.00000      5.46894      6.04200     32.35274   #    N3   0.24945000   0.25455000   0.83785000
  228 1     3      0.00000      7.31165      5.34535     33.69458   #    N4   0.33350000   0.22520000   0.87260000
  229 1     3      0.00000      7.99788      4.52289     23.67424   #    N5   0.36480000   0.19055000   0.61310000