Created by Ryther's code on 2025-07-29 22:47:02.274964, modified by xyan11@uic.edu. 

    568 atoms
    648 bonds
    1200 angles
    1296 dihedrals
    224 impropers

    9 atom types
    18 bond types
    36 angle types
    9 dihedral types
    2 improper types

0.00000000 46.64474029 xlo xhi
0.00000000 20.60406146 ylo yhi
0.00000000 21.29168349 zlo zhi
-0.1425138 0.51352098 1.65708931 xy xz yz 

Masses 

    1    12.0107  #   C
    2    12.0107  #   C
    3    1.00794  #   H
    4    14.0067  #   N
    5    15.9994  #   O
    6    15.9994  #   O
    7    15.9994  #   O
    8      65.38  #  Zn
    9      65.38  #  Zn

Pair Coeffs

    1       0.10500      3.43085  #  C_3 C_3
    2       0.10500      3.43085  #  C_R C_R
    3       0.04400      2.57113  #  H_ H_
    4       0.06900      3.26069  #  N_2 N_2
    5       0.06000      3.11815  #  O_2_M O_2_M
    6       0.06000      3.11815  #  O_3 O_3
    7       0.06000      3.11815  #  O_3_M O_3_M
    8       0.12400      2.46155  #  Zn4+2 Zn4+2
    9       0.06000      2.58361  #  Zn6f3 Zn6f3

Bond Coeffs

    1      54.94924      2.40433  #  O_2_M Zn6f3 bond order=0.5
    2      55.07699      2.48452  #  N_2 Zn6f3 bond order=0.5
    3     103.61325      2.20128  #  N_2 Zn4+2 bond order=0.5
    4      48.90184      1.84943  #  H_ Zn4+2 bond order=0.5
    5     104.44141      2.12294  #  O_2_M Zn4+2 bond order=0.5
    6     100.76218      2.14847  #  O_3_M Zn4+2 bond order=0.5
    7     357.44038      1.08142  #  C_R H_ bond order=1.0
    8     331.06939      1.10940  #  C_3 H_ bond order=1.0
    9     559.99521      0.99025  #  H_ O_3_M bond order=1.0
    10    931.53598      1.20133  #  C_R N_2 bond order=3.0
    11    462.65505      1.37926  #  C_R C_R bond order=1.5
    12    572.46041      1.36631  #  C_R O_3 bond order=1.0
    13    539.20166      1.39385  #  C_3 O_3 bond order=1.0
    14    349.79590      1.51400  #  C_3 C_3 bond order=1.0
    15    369.94394      1.48600  #  C_3 C_R bond order=1.0
    16    391.66951      1.45800  #  C_R C_R bond order=1.0
    17    714.55744      1.26901  #  C_R O_2_M bond order=1.5
    18    678.02790      1.29140  #  C_R O_3_M bond order=1.5

Angle Coeffs

    1  cosine/periodic         67.02484            1            4  #  O_2_M Zn6f3 O_2_M
    2  cosine/periodic         70.47472            1            4  #  N_2 Zn6f3 O_2_M
    3  cosine/periodic         37.39156            1            4  #  H_ Zn4+2 N_2
    4  cosine/periodic        101.82219            1            4  #  N_2 Zn4+2 O_2_M
    5  cosine/periodic        100.10309            1            4  #  N_2 Zn4+2 O_3_M
    6  cosine/periodic         36.20045            1            4  #  H_ Zn4+2 O_2_M
    7  cosine/periodic         35.40556            1            4  #  H_ Zn4+2 O_3_M
    8  cosine/periodic         14.11273            1            4  #  H_ Zn4+2 H_
    9  cosine/periodic         95.61832            1            4  #  O_2_M Zn4+2 O_3_M
    10 cosine/periodic         97.36576            1            4  #  O_2_M Zn4+2 O_2_M
    11 cosine/periodic         43.63912            1            1  #  O_3_M H_ Zn4+2
    12 cosine/periodic        179.74893           -1            3  #  C_R C_R N_2
    13 cosine/periodic        111.29751           -1            3  #  C_R C_R C_R
    14 cosine/periodic         57.28902           -1            3  #  C_R C_R H_
    15 cosine/periodic        135.76992           -1            3  #  C_R C_R O_3
    16 fourier                 75.49653      0.34375      0.37500      0.28125  #  H_ C_3 H_
    17 fourier                165.75867      0.34375      0.37500      0.28125  #  H_ C_3 O_3
    18 fourier                117.31542      0.34375      0.37500      0.28125  #  C_3 C_3 H_
    19 fourier                289.99897      0.34375      0.37500      0.28125  #  C_3 C_3 O_3
    20 fourier                121.77380      0.34375      0.37500      0.28125  #  C_R C_3 H_
    21 fourier                298.92298      0.34375      0.37500      0.28125  #  C_R C_3 O_3
    22 cosine/periodic         99.13715           -1            3  #  C_3 C_R C_R
    23 cosine/periodic        102.18328           -1            3  #  C_R C_R C_R
    24 cosine/periodic        137.71425           -1            3  #  C_R C_R O_2_M
    25 cosine/periodic        206.77843           -1            3  #  O_2_M C_R O_2_M
    26 cosine/periodic        134.57449           -1            3  #  C_R C_R O_3_M
    27 cosine/periodic        201.38050           -1            3  #  O_2_M C_R O_3_M
    28 fourier                 48.02888      0.36401      0.41847      0.28800  #  C_R N_2 Zn6f3
    29 fourier                 84.89470      0.36401      0.41847      0.28800  #  C_R N_2 Zn4+2
    30 fourier                320.94891      0.30023      0.26733      0.26675  #  C_3 O_3 C_R
    31 fourier                311.60110      0.30023      0.26733      0.26675  #  C_3 O_3 C_3
    32 cosine/periodic         37.72922           -1            3  #  C_R O_2_M Zn4+2
    33 fourier                 41.31289      0.30023      0.26733      0.26675  #  H_ O_3_M Zn4+2
    34 fourier                 99.02913      0.30023      0.26733      0.26675  #  C_R O_3_M Zn4+2
    35 fourier                203.65891      0.30023      0.26733      0.26675  #  C_R O_3_M H_
    36 cosine/periodic         21.77718           -1            3  #  C_R O_2_M Zn6f3

Dihedral Coeffs

    1      27.96100           -1            2  #  X C_R N_2 X bond order=3.0
    2       6.73711           -1            2  #  X C_R C_R X bond order=1.5
    3       0.23717           -1            2  #  X C_R O_3 X bond order=1.0
    4       0.03255            1            3  #  X C_3 O_3 X bond order=1.0
    5       0.11772            1            3  #  X C_3 C_3 X bond order=1.0
    6       0.16667           -1            6  #  X C_3 C_R X bond order=1.0
    7       1.25000           -1            2  #  X C_R C_R X bond order=1.0
    8       6.73711           -1            2  #  X C_R O_2_M X bond order=1.5
    9       0.31957           -1            2  #  X C_R O_3_M X bond order=1.5

Improper Coeffs

    1       2.00000      1.00000     -1.00000      0.00000            1  #  C_R X X X O_2 present=False
    2      16.66667      1.00000     -1.00000      0.00000            1  #  C_R X X X O_2 present=True

Atoms # a, b, c, alpha, beta, gamma: 46.6447402934, 20.6045543238, 21.3622432009, 85.5607048212, 88.6225501208, 90.3962960835 $$$atoms$$$

    1 1     9      0.00000     14.71575      4.95032      6.22677   #   Zn1   0.31292839   0.21673910   0.29245103
    2 1     8      0.00000     17.64519      4.97063      6.15450   #   Zn2   0.37577268   0.21799770   0.28905651
    3 1     3      0.00000      9.80897      4.32400      8.13795   #    H1   0.20663041   0.17912187   0.38221254
    4 1     3      0.00000      7.39708      3.88131      7.88561   #    H2   0.15499060   0.15858975   0.37036100
    5 1     3      0.00000      7.81493      4.11515      3.59816   #    H3   0.16624982   0.18613369   0.16899391
    6 1     3      0.00000     10.21096      4.55490      3.85385   #    H4   0.21754735   0.20651100   0.18100251
    7 1     3      0.00000      5.41029      4.58005      3.86452   #    H5   0.11462566   0.20769102   0.18150378
    8 1     3      0.00000      5.73711      2.79675      3.79824   #    H6   0.12140280   0.12139062   0.17839101
    9 1     3      0.00000      3.79400      2.38356      5.28851   #    H7   0.07889602   0.09570761   0.24838396
   10 1     3      0.00000      3.43468      4.12674      5.38201   #    H8   0.07140191   0.17995826   0.25277504
   11 1     3      0.00000      3.16293      5.26649      3.29140   #    H9   0.06685008   0.24317166   0.15458599
   12 1     3      0.00000      2.37625      4.33457      2.00612   #   H10   0.05052586   0.20279661   0.09422074
   13 1     3      0.00000      0.28833      2.86473      2.67588   #   H11   0.00519164   0.12892975   0.12567724
   14 1     3      0.00000     21.40234      3.07884      3.74454   #   H12   0.45731432   0.13528443   0.17586851
   15 1     3      0.00000     22.84629      6.41284      6.06338   #   H13   0.48753934   0.28833811   0.28477708
   16 1     3      0.00000      1.73097      6.20146      4.99768   #   H14   0.03538736   0.28210448   0.23472434
   17 1     3      0.00000     14.55553     10.10050      6.98747   #   H16   0.30985500   0.46382516   0.32817854
   18 1     3      0.00000     17.91932      7.98812      5.30844   #   H18   0.38254442   0.36764473   0.24931982
   19 1     3      0.00000     18.99045     10.13118      4.76402   #   H19   0.40611348   0.47371263   0.22375034
   20 1     3      0.00000     17.96104      1.95718      5.30844   #   H20   0.38254443   0.07493855   0.24931975
   21 1     3      0.00000     17.12381      5.65778      5.37380   #   H21   0.36510966   0.25429690   0.25238957
   22 1     3      0.00000     14.38631      3.30997      2.22849   #   H22   0.30773575   0.15222853   0.10466498
   23 1     3      0.00000     14.58440      3.94918     10.44172   #   H23   0.30773574   0.15222856   0.49041297
   24 1     3      0.00000     17.97409      6.61049     10.15327   #   H24   0.38095321   0.28248217   0.47686537
   25 1     3      0.00000     17.77598      5.97120      1.93919   #   H25   0.38095320   0.28248214   0.09107755
   26 1     3      0.00000     17.15927      5.77217      6.84368   #   H26   0.36510975   0.25429667   0.32142505
   27 1     2      0.00000     11.58413      4.72854      6.15874   #    C1   0.24579361   0.20623197   0.28925568
   28 1     2      0.00000     10.17558      4.46990      6.01288   #    C2   0.21563509   0.19423028   0.28240531
   29 1     2      0.00000      9.37583      4.27888      7.14586   #    C3   0.19786229   0.18067937   0.33561741
   30 1     2      0.00000      8.00772      4.02771      7.00362   #    C4   0.16856978   0.16902640   0.32893672
   31 1     2      0.00000      7.42421      3.96463      5.73213   #    C5   0.15672278   0.17076800   0.26921903
   32 1     2      0.00000      8.23284      4.15739      4.59463   #    C6   0.17468859   0.18441997   0.21579457
   33 1     2      0.00000      9.60128      4.40860      4.73753   #    C7   0.20398788   0.19607263   0.22250596
   34 1     1      0.00000      5.32296      3.62107      4.41881   #    C8   0.11231827   0.15905428   0.20753682
   35 1     1      0.00000      3.85452      3.33475      4.71828   #    C9   0.08063615   0.14402669   0.22160187
   36 1     1      0.00000      2.51897      4.37494      3.10671   #   C10   0.05300987   0.20059896   0.14591203
   37 1     2      0.00000      1.16671      4.52261      3.75200   #   C11   0.02369993   0.20532824   0.17621923
   38 1     2      0.00000      0.12672      3.64337      3.41122   #   C12   0.00145368   0.16394236   0.16021377
   39 1     2      0.00000     22.19551      3.76399      4.01896   #   C13   0.47427533   0.16750087   0.18875732
   40 1     2      0.00000     21.97193      4.76218      4.97542   #   C14   0.46912442   0.21233464   0.23367916
   41 1     2      0.00000     20.68171      4.88547      5.60168   #   C15   0.44115110   0.21595282   0.26309254
   42 1     2      0.00000     23.00748      5.63871      5.32270   #   C16   0.49127181   0.25356450   0.24998949
   43 1     2      0.00000      0.93896      5.51899      4.71523   #   C17   0.01845602   0.25004837   0.22145859
   44 1     2      0.00000     16.20770      1.03264      6.19064   #   C18   0.34435191   0.02673453   0.29075384
   45 1     2      0.00000     15.52358     10.10720      6.50214   #   C19   0.33086619   0.46598335   0.30538412
   46 1     2      0.00000     16.15337      8.88832      6.19064   #   C20   0.34435189   0.40800264   0.29075385
   47 1     2      0.00000     17.40972      8.90968      5.56072   #   C21   0.37162264   0.41141905   0.26116855
   48 1     2      0.00000     18.02280     10.12448      5.24915   #   C22   0.38511095   0.47155524   0.24653542
   49 1     2      0.00000     17.46424      1.02866      5.56072   #   C23   0.37162263   0.02892052   0.26116851
   50 1     2      0.00000     16.08611      4.65579      2.27568   #   C24   0.34435191   0.21736858   0.10688123
   51 1     2      0.00000     15.11866      3.85434      1.64538   #   C25   0.32382540   0.18085197   0.07727803
   52 1     2      0.00000     15.08506      3.74590      0.25203   #   C26   0.32382538   0.18085201   0.01183696
   53 1     2      0.00000     16.27496      5.26517     10.10560   #   C27   0.34435189   0.21736861   0.47462644
   54 1     2      0.00000     16.98486      5.23745      0.09007   #   C28   0.36486146   0.25385495   0.00423027
   55 1     2      0.00000     17.01847      5.34590      1.48353   #   C29   0.36486146   0.25385494   0.06967642
   56 1     2      0.00000     16.23960      5.09670      8.62558   #   C30   0.34435126   0.21478239   0.40511477
   57 1     2      0.00000     16.12137      4.82427      3.75570   #   C31   0.34435049   0.21995525   0.17639280
   58 1     2      0.00000     16.16229      7.39929      6.13751   #   C32   0.34435043   0.33593482   0.28825877
   59 1     2      0.00000     16.19869      2.52166      6.24376   #   C33   0.34435130   0.09880203   0.29324883
   60 1     4      0.00000     12.71650      4.93647      6.27599   #    N1   0.27003895   0.21588062   0.29476264
   61 1     4      0.00000     19.64444      4.98459      6.10517   #    N2   0.41866212   0.21886151   0.28673977
   62 1     6      0.00000      6.04775      3.71022      5.64276   #    O1   0.12722300   0.15875781   0.26502179
   63 1     6      0.00000      3.13091      3.16510      3.51286   #    O2   0.06573486   0.14034609   0.16498726
   64 1     5      0.00000     17.24491      4.88846      4.22498   #    O3   0.36819909   0.22129816   0.19843332
   65 1     5      0.00000     17.33943      5.04791      8.10144   #    O4   0.36820002   0.21439424   0.38049771
   66 1     7      0.00000     17.27699      6.90728      6.09231   #    O5   0.36819903   0.31222636   0.28613568
   67 1     5      0.00000     17.30736      3.02909      6.23410   #    O6   0.36820007   0.12346605   0.29279530
   68 1     5      0.00000     15.05358      6.89186      6.14717   #    O7   0.32050098   0.31127076   0.28871225
   69 1     5      0.00000     15.11603      5.03251      8.15630   #    O8   0.32050197   0.21343942   0.38307424
   70 1     5      0.00000     15.02151      4.87306      4.27982   #    O9   0.32050104   0.22034332   0.20100909
   71 1     5      0.00000     15.08395      3.01368      6.28895   #   O10   0.32050202   0.12251120   0.29537112
   72 1     9      0.00000     14.97252      5.77887     16.87262   #   Zn1   0.31292839   0.21673910   0.79245103
   73 1     8      0.00000     17.90195      5.79918     16.80034   #   Zn2   0.37577268   0.21799770   0.78905651
   74 1     3      0.00000     10.06573      5.15254     18.78379   #    H1   0.20663041   0.17912187   0.88221254
   75 1     3      0.00000      7.65384      4.70986     18.53145   #    H2   0.15499060   0.15858975   0.87036100
   76 1     3      0.00000      8.07170      4.94369     14.24401   #    H3   0.16624982   0.18613369   0.66899391
   77 1     3      0.00000     10.46772      5.38345     14.49969   #    H4   0.21754735   0.20651100   0.68100251
   78 1     3      0.00000      5.66705      5.40859     14.51036   #    H5   0.11462566   0.20769102   0.68150378
   79 1     3      0.00000      5.99387      3.62529     14.44409   #    H6   0.12140280   0.12139062   0.67839101
   80 1     3      0.00000      4.05076      3.21210     15.93435   #    H7   0.07889602   0.09570761   0.74838396
   81 1     3      0.00000      3.69144      4.95529     16.02785   #    H8   0.07140191   0.17995826   0.75277504
   82 1     3      0.00000      3.41969      6.09503     13.93724   #    H9   0.06685008   0.24317166   0.65458599
   83 1     3      0.00000      2.63301      5.16311     12.65196   #   H10   0.05052586   0.20279661   0.59422074
   84 1     3      0.00000      0.54509      3.69328     13.32172   #   H11   0.00519164   0.12892975   0.62567724
   85 1     3      0.00000     21.65910      3.90738     14.39038   #   H12   0.45731432   0.13528443   0.67586851
   86 1     3      0.00000     23.10305      7.24138     16.70923   #   H13   0.48753934   0.28833811   0.78477708
   87 1     3      0.00000      1.98773      7.03000     15.64352   #   H14   0.03538736   0.28210448   0.73472434
   88 1     3      0.00000     14.81229     10.92905     17.63332   #   H16   0.30985500   0.46382516   0.82817854
   89 1     3      0.00000     18.17608      8.81666     15.95428   #   H18   0.38254442   0.36764473   0.74931982
   90 1     3      0.00000     19.24721     10.95972     15.40986   #   H19   0.40611348   0.47371263   0.72375034
   91 1     3      0.00000     18.21780      2.78573     15.95428   #   H20   0.38254443   0.07493855   0.74931975
   92 1     3      0.00000     17.38057      6.48633     16.01964   #   H21   0.36510966   0.25429690   0.75238957
   93 1     3      0.00000     14.64307      4.13851     12.87434   #   H22   0.30773575   0.15222853   0.60466498
   94 1     3      0.00000     14.84116      4.77773     21.08756   #   H23   0.30773574   0.15222856   0.99041297
   95 1     3      0.00000     18.23085      7.43903     20.79911   #   H24   0.38095321   0.28248217   0.97686537
   96 1     3      0.00000     18.03274      6.79975     12.58504   #   H25   0.38095320   0.28248214   0.59107755
   97 1     3      0.00000     17.41603      6.60072     17.48952   #   H26   0.36510975   0.25429667   0.82142505
   98 1     2      0.00000     11.84089      5.55708     16.80458   #    C1   0.24579361   0.20623197   0.78925568
   99 1     2      0.00000     10.43234      5.29845     16.65873   #    C2   0.21563509   0.19423028   0.78240531
  100 1     2      0.00000      9.63259      5.10742     17.79170   #    C3   0.19786229   0.18067937   0.83561741
  101 1     2      0.00000      8.26448      4.85625     17.64946   #    C4   0.16856978   0.16902640   0.82893672
  102 1     2      0.00000      7.68097      4.79318     16.37797   #    C5   0.15672278   0.17076800   0.76921903
  103 1     2      0.00000      8.48960      4.98594     15.24047   #    C6   0.17468859   0.18441997   0.71579457
  104 1     2      0.00000      9.85804      5.23715     15.38337   #    C7   0.20398788   0.19607263   0.72250596
  105 1     1      0.00000      5.57972      4.44962     15.06465   #    C8   0.11231827   0.15905428   0.70753682
  106 1     1      0.00000      4.11128      4.16329     15.36412   #    C9   0.08063615   0.14402669   0.72160187
  107 1     1      0.00000      2.77573      5.20349     13.75255   #   C10   0.05300987   0.20059896   0.64591203
  108 1     2      0.00000      1.42347      5.35115     14.39785   #   C11   0.02369993   0.20532824   0.67621923
  109 1     2      0.00000      0.38348      4.47191     14.05706   #   C12   0.00145368   0.16394236   0.66021377
  110 1     2      0.00000     22.45227      4.59253     14.66480   #   C13   0.47427533   0.16750087   0.68875732
  111 1     2      0.00000     22.22869      5.59073     15.62126   #   C14   0.46912442   0.21233464   0.73367916
  112 1     2      0.00000     20.93847      5.71402     16.24752   #   C15   0.44115110   0.21595282   0.76309254
  113 1     2      0.00000     23.26425      6.46726     15.96854   #   C16   0.49127181   0.25356450   0.74998949
  114 1     2      0.00000      1.19572      6.34753     15.36107   #   C17   0.01845602   0.25004837   0.72145859
  115 1     2      0.00000     16.46446      1.86119     16.83648   #   C18   0.34435191   0.02673453   0.79075384
  116 1     2      0.00000     15.78034     10.93574     17.14798   #   C19   0.33086619   0.46598335   0.80538412
  117 1     2      0.00000     16.41013      9.71686     16.83648   #   C20   0.34435189   0.40800264   0.79075385
  118 1     2      0.00000     17.66648      9.73823     16.20656   #   C21   0.37162264   0.41141905   0.76116855
  119 1     2      0.00000     18.27956     10.95303     15.89500   #   C22   0.38511095   0.47155524   0.74653542
  120 1     2      0.00000     17.72100      1.85720     16.20656   #   C23   0.37162263   0.02892052   0.76116851
  121 1     2      0.00000     16.34287      5.48433     12.92152   #   C24   0.34435191   0.21736858   0.60688123
  122 1     2      0.00000     15.37542      4.68289     12.29122   #   C25   0.32382540   0.18085197   0.57727803
  123 1     2      0.00000     15.34182      4.57445     10.89787   #   C26   0.32382538   0.18085201   0.51183696
  124 1     2      0.00000     16.53172      6.09372     20.75144   #   C27   0.34435189   0.21736861   0.97462644
  125 1     2      0.00000     17.24162      6.06600     10.73591   #   C28   0.36486146   0.25385495   0.50423027
  126 1     2      0.00000     17.27523      6.17445     12.12937   #   C29   0.36486146   0.25385494   0.56967642
  127 1     2      0.00000     16.49636      5.92525     19.27142   #   C30   0.34435126   0.21478239   0.90511477
  128 1     2      0.00000     16.37813      5.65281     14.40154   #   C31   0.34435049   0.21995525   0.67639280
  129 1     2      0.00000     16.41905      8.22784     16.78336   #   C32   0.34435043   0.33593482   0.78825877
  130 1     2      0.00000     16.45545      3.35021     16.88960   #   C33   0.34435130   0.09880203   0.79324883
  131 1     4      0.00000     12.97326      5.76501     16.92183   #    N1   0.27003895   0.21588062   0.79476264
  132 1     4      0.00000     19.90120      5.81313     16.75101   #    N2   0.41866212   0.21886151   0.78673977
  133 1     6      0.00000      6.30451      4.53877     16.28860   #    O1   0.12722300   0.15875781   0.76502179
  134 1     6      0.00000      3.38767      3.99364     14.15870   #    O2   0.06573486   0.14034609   0.66498726
  135 1     5      0.00000     17.50167      5.71701     14.87082   #    O3   0.36819909   0.22129816   0.69843332
  136 1     5      0.00000     17.59619      5.87646     18.74728   #    O4   0.36820002   0.21439424   0.88049771
  137 1     7      0.00000     17.53375      7.73583     16.73815   #    O5   0.36819903   0.31222636   0.78613568
  138 1     5      0.00000     17.56412      3.85763     16.87995   #    O6   0.36820007   0.12346605   0.79279530
  139 1     5      0.00000     15.31034      7.72041     16.79301   #    O7   0.32050098   0.31127076   0.78871225
  140 1     5      0.00000     15.37279      5.86105     18.80214   #    O8   0.32050197   0.21343942   0.88307424
  141 1     5      0.00000     15.27827      5.70160     14.92566   #    O9   0.32050104   0.22034332   0.70100909
  142 1     5      0.00000     15.34071      3.84223     16.93479   #   O10   0.32050202   0.12251120   0.79537112
  143 1     9      0.00000     14.64450     15.25235      6.22677   #   Zn1   0.31292839   0.71673910   0.29245103
  144 1     8      0.00000     17.57393     15.27266      6.15450   #   Zn2   0.37577268   0.71799770   0.28905651
  145 1     3      0.00000      9.73771     14.62603      8.13795   #    H1   0.20663041   0.67912187   0.38221254
  146 1     3      0.00000      7.32583     14.18334      7.88561   #    H2   0.15499060   0.65858975   0.37036100
  147 1     3      0.00000      7.74368     14.41718      3.59816   #    H3   0.16624982   0.68613369   0.16899391
  148 1     3      0.00000     10.13970     14.85693      3.85385   #    H4   0.21754735   0.70651100   0.18100251
  149 1     3      0.00000      5.33903     14.88208      3.86452   #    H5   0.11462566   0.70769102   0.18150378
  150 1     3      0.00000      5.66585     13.09878      3.79824   #    H6   0.12140280   0.62139062   0.17839101
  151 1     3      0.00000      3.72274     12.68559      5.28851   #    H7   0.07889602   0.59570761   0.24838396
  152 1     3      0.00000      3.36343     14.42877      5.38201   #    H8   0.07140191   0.67995826   0.25277504
  153 1     3      0.00000      3.09168     15.56852      3.29140   #    H9   0.06685008   0.74317166   0.15458599
  154 1     3      0.00000      2.30499     14.63660      2.00612   #   H10   0.05052586   0.70279661   0.09422074
  155 1     3      0.00000      0.21707     13.16677      2.67588   #   H11   0.00519164   0.62892975   0.12567724
  156 1     3      0.00000     21.33108     13.38087      3.74454   #   H12   0.45731432   0.63528443   0.17586851
  157 1     3      0.00000     22.77504     16.71487      6.06338   #   H13   0.48753934   0.78833811   0.28477708
  158 1     3      0.00000      1.65971     16.50349      4.99768   #   H14   0.03538736   0.78210448   0.23472434
  159 1     3      0.00000     14.48427     20.40253      6.98747   #   H16   0.30985500   0.96382516   0.32817854
  160 1     3      0.00000     17.84806     18.29015      5.30844   #   H18   0.38254442   0.86764473   0.24931982
  161 1     3      0.00000     18.91919     20.43321      4.76402   #   H19   0.40611348   0.97371263   0.22375034
  162 1     3      0.00000     17.88978     12.25921      5.30844   #   H20   0.38254443   0.57493855   0.24931975
  163 1     3      0.00000     17.05255     15.95981      5.37380   #   H21   0.36510966   0.75429690   0.25238957
  164 1     3      0.00000     14.31505     13.61200      2.22849   #   H22   0.30773575   0.65222853   0.10466498
  165 1     3      0.00000     14.51314     14.25122     10.44172   #   H23   0.30773574   0.65222856   0.49041297
  166 1     3      0.00000     17.90283     16.91252     10.15327   #   H24   0.38095321   0.78248217   0.47686537
  167 1     3      0.00000     17.70472     16.27323      1.93919   #   H25   0.38095320   0.78248214   0.09107755
  168 1     3      0.00000     17.08801     16.07420      6.84368   #   H26   0.36510975   0.75429667   0.32142505
  169 1     2      0.00000     11.51287     15.03057      6.15874   #    C1   0.24579361   0.70623197   0.28925568
  170 1     2      0.00000     10.10433     14.77193      6.01288   #    C2   0.21563509   0.69423028   0.28240531
  171 1     2      0.00000      9.30458     14.58091      7.14586   #    C3   0.19786229   0.68067937   0.33561741
  172 1     2      0.00000      7.93646     14.32974      7.00362   #    C4   0.16856978   0.66902640   0.32893672
  173 1     2      0.00000      7.35295     14.26667      5.73213   #    C5   0.15672278   0.67076800   0.26921903
  174 1     2      0.00000      8.16158     14.45942      4.59463   #    C6   0.17468859   0.68441997   0.21579457
  175 1     2      0.00000      9.53002     14.71064      4.73753   #    C7   0.20398788   0.69607263   0.22250596
  176 1     1      0.00000      5.25171     13.92310      4.41881   #    C8   0.11231827   0.65905428   0.20753682
  177 1     1      0.00000      3.78327     13.63678      4.71828   #    C9   0.08063615   0.64402669   0.22160187
  178 1     1      0.00000      2.44772     14.67697      3.10671   #   C10   0.05300987   0.70059896   0.14591203
  179 1     2      0.00000      1.09545     14.82464      3.75200   #   C11   0.02369993   0.70532824   0.17621923
  180 1     2      0.00000      0.05546     13.94540      3.41122   #   C12   0.00145368   0.66394236   0.16021377
  181 1     2      0.00000     22.12425     14.06602      4.01896   #   C13   0.47427533   0.66750087   0.18875732
  182 1     2      0.00000     21.90067     15.06421      4.97542   #   C14   0.46912442   0.71233464   0.23367916
  183 1     2      0.00000     20.61045     15.18750      5.60168   #   C15   0.44115110   0.71595282   0.26309254
  184 1     2      0.00000     22.93623     15.94074      5.32270   #   C16   0.49127181   0.75356450   0.24998949
  185 1     2      0.00000      0.86771     15.82102      4.71523   #   C17   0.01845602   0.75004837   0.22145859
  186 1     2      0.00000     16.13645     11.33468      6.19064   #   C18   0.34435191   0.52673453   0.29075384
  187 1     2      0.00000     15.45232     20.40923      6.50214   #   C19   0.33086619   0.96598335   0.30538412
  188 1     2      0.00000     16.08211     19.19035      6.19064   #   C20   0.34435189   0.90800264   0.29075385
  189 1     2      0.00000     17.33847     19.21171      5.56072   #   C21   0.37162264   0.91141905   0.26116855
  190 1     2      0.00000     17.95154     20.42652      5.24915   #   C22   0.38511095   0.97155524   0.24653542
  191 1     2      0.00000     17.39298     11.33069      5.56072   #   C23   0.37162263   0.52892052   0.26116851
  192 1     2      0.00000     16.01486     14.95782      2.27568   #   C24   0.34435191   0.71736858   0.10688123
  193 1     2      0.00000     15.04740     14.15637      1.64538   #   C25   0.32382540   0.68085197   0.07727803
  194 1     2      0.00000     15.01380     14.04793      0.25203   #   C26   0.32382538   0.68085201   0.01183696
  195 1     2      0.00000     16.20370     15.56721     10.10560   #   C27   0.34435189   0.71736861   0.47462644
  196 1     2      0.00000     16.91361     15.53948      0.09007   #   C28   0.36486146   0.75385495   0.00423027
  197 1     2      0.00000     16.94721     15.64793      1.48353   #   C29   0.36486146   0.75385494   0.06967642
  198 1     2      0.00000     16.16834     15.39873      8.62558   #   C30   0.34435126   0.71478239   0.40511477
  199 1     2      0.00000     16.05012     15.12630      3.75570   #   C31   0.34435049   0.71995525   0.17639280
  200 1     2      0.00000     16.09103     17.70132      6.13751   #   C32   0.34435043   0.83593482   0.28825877
  201 1     2      0.00000     16.12743     12.82369      6.24376   #   C33   0.34435130   0.59880203   0.29324883
  202 1     4      0.00000     12.64524     15.23850      6.27599   #    N1   0.27003895   0.71588062   0.29476264
  203 1     4      0.00000     19.57318     15.28662      6.10517   #    N2   0.41866212   0.71886151   0.28673977
  204 1     6      0.00000      5.97650     14.01225      5.64276   #    O1   0.12722300   0.65875781   0.26502179