Created by Ryther's code on 2025-07-29 22:46:53.676014, modified by xyan11@uic.edu. 

    480 atoms
    560 bonds
    1040 angles
    1120 dihedrals
    224 impropers

    7 atom types
    13 bond types
    26 angle types
    5 dihedral types
    2 improper types

0.00000000 38.48007934 xlo xhi
0.00000000 20.60455431 ylo yhi
0.00000000 21.29815437 zlo zhi
0.00060886 5.119e-05 1.65349784 xy xz yz 

Masses 

    1    12.0107  #   C
    2    1.00794  #   H
    3    14.0067  #   N
    4    15.9994  #   O
    5    15.9994  #   O
    6      65.38  #  Zn
    7      65.38  #  Zn

Pair Coeffs

    1       0.10500      3.43085  #  C_R C_R
    2       0.04400      2.57113  #  H_ H_
    3       0.06900      3.26069  #  N_2 N_2
    4       0.06000      3.11815  #  O_2_M O_2_M
    5       0.06000      3.11815  #  O_3_M O_3_M
    6       0.12400      2.46155  #  Zn4+2 Zn4+2
    7       0.06000      2.58361  #  Zn6f3 Zn6f3

Bond Coeffs

    1      54.94924      2.40433  #  O_2_M Zn6f3 bond order=0.5
    2      55.07699      2.48452  #  N_2 Zn6f3 bond order=0.5
    3     104.44141      2.12294  #  O_2_M Zn4+2 bond order=0.5
    4      48.90184      1.84943  #  H_ Zn4+2 bond order=0.5
    5     100.76218      2.14847  #  O_3_M Zn4+2 bond order=0.5
    6     103.61325      2.20128  #  N_2 Zn4+2 bond order=0.5
    7     357.44038      1.08142  #  C_R H_ bond order=1.0
    8     559.99521      0.99025  #  H_ O_3_M bond order=1.0
    9     462.65505      1.37926  #  C_R C_R bond order=1.5
    10    931.53598      1.20133  #  C_R N_2 bond order=3.0
    11    391.66951      1.45800  #  C_R C_R bond order=1.0
    12    714.55744      1.26901  #  C_R O_2_M bond order=1.5
    13    678.02790      1.29140  #  C_R O_3_M bond order=1.5

Angle Coeffs

    1  cosine/periodic         70.47472            1            4  #  N_2 Zn6f3 O_2_M
    2  cosine/periodic         67.02484            1            4  #  O_2_M Zn6f3 O_2_M
    3  cosine/periodic         97.36576            1            4  #  O_2_M Zn4+2 O_2_M
    4  cosine/periodic         36.20045            1            4  #  H_ Zn4+2 O_2_M
    5  cosine/periodic         95.61832            1            4  #  O_2_M Zn4+2 O_3_M
    6  cosine/periodic        101.82219            1            4  #  N_2 Zn4+2 O_2_M
    7  cosine/periodic         35.40556            1            4  #  H_ Zn4+2 O_3_M
    8  cosine/periodic         14.11273            1            4  #  H_ Zn4+2 H_
    9  cosine/periodic         37.39156            1            4  #  H_ Zn4+2 N_2
    10 cosine/periodic        100.10309            1            4  #  N_2 Zn4+2 O_3_M
    11 cosine/periodic         43.63912            1            1  #  O_3_M H_ Zn4+2
    12 cosine/periodic        179.74893           -1            3  #  C_R C_R N_2
    13 cosine/periodic        111.29751           -1            3  #  C_R C_R C_R
    14 cosine/periodic         57.28902           -1            3  #  C_R C_R H_
    15 cosine/periodic        102.18328           -1            3  #  C_R C_R C_R
    16 cosine/periodic        137.71425           -1            3  #  C_R C_R O_2_M
    17 cosine/periodic        206.77843           -1            3  #  O_2_M C_R O_2_M
    18 cosine/periodic        134.57449           -1            3  #  C_R C_R O_3_M
    19 cosine/periodic        201.38050           -1            3  #  O_2_M C_R O_3_M
    20 fourier                 48.02888      0.36401      0.41847      0.28800  #  C_R N_2 Zn6f3
    21 fourier                 84.89470      0.36401      0.41847      0.28800  #  C_R N_2 Zn4+2
    22 cosine/periodic         37.72922           -1            3  #  C_R O_2_M Zn4+2
    23 fourier                 41.31289      0.30023      0.26733      0.26675  #  H_ O_3_M Zn4+2
    24 fourier                 99.02913      0.30023      0.26733      0.26675  #  C_R O_3_M Zn4+2
    25 fourier                203.65891      0.30023      0.26733      0.26675  #  C_R O_3_M H_
    26 cosine/periodic         21.77718           -1            3  #  C_R O_2_M Zn6f3

Dihedral Coeffs

    1       6.73711           -1            2  #  X C_R C_R X bond order=1.5
    2      27.96100           -1            2  #  X C_R N_2 X bond order=3.0
    3       1.25000           -1            2  #  X C_R C_R X bond order=1.0
    4       6.73711           -1            2  #  X C_R O_2_M X bond order=1.5
    5       0.31957           -1            2  #  X C_R O_3_M X bond order=1.5

Improper Coeffs

    1       2.00000      1.00000     -1.00000      0.00000            1  #  C_R X X X O_2 present=False
    2      16.66667      1.00000     -1.00000      0.00000            1  #  C_R X X X O_2 present=True

Atoms # a, b, c, alpha, beta, gamma: 38.4800793351, 20.6045543238, 21.3622432009, 85.5607048212, 89.9998626958, 89.9983069170 $$$atoms$$$

    1 1     7      0.00000     14.59182      4.84799      6.58844   #   Zn1   0.37920087   0.21046279   0.30934322
    2 1     6      0.00000     17.52222      4.84795      6.58839   #   Zn2   0.45535443   0.21046095   0.30934110
    3 1     2      0.00000      9.82663      3.81678      8.47932   #    H1   0.25536640   0.15329031   0.39812462
    4 1     2      0.00000      7.37393      3.82481      8.49166   #    H2   0.19162693   0.15363381   0.39870419
    5 1     2      0.00000      7.37394      5.87124      4.68505   #    H3   0.19162548   0.26729566   0.21997467
    6 1     2      0.00000      9.82664      5.87927      4.69740   #    H4   0.25536488   0.26763898   0.22055446
    7 1     2      0.00000      5.50007      2.82141      7.33828   #    H5   0.14293066   0.10928170   0.34454990
    8 1     2      0.00000      3.04737      2.83253      7.34795   #    H6   0.07919125   0.10978461   0.34500392
    9 1     2      0.00000      3.04737      6.86352      5.82877   #    H7   0.07918805   0.31114457   0.27367482
   10 1     2      0.00000      5.50006      6.87463      5.83844   #    H8   0.14292748   0.31164762   0.27412873
   11 1     2      0.00000     14.44867      9.99916      7.34584   #   H10   0.37547660   0.45761049   0.34490483
   12 1     2      0.00000     17.83807      7.86346      5.74986   #   H12   0.46356030   0.35997215   0.26996995
   13 1     2      0.00000     18.93715      9.99903      5.23238   #   H13   0.49212085   0.46556733   0.24567276
   14 1     2      0.00000     17.83789      1.83238      5.74986   #   H14   0.46356031   0.06726598   0.26996988
   15 1     2      0.00000     17.02503      5.53870      5.79520   #   H15   0.44243318   0.24697400   0.27209856
   16 1     2      0.00000     14.34964      3.20996      2.58297   #   H16   0.37290852   0.14605637   0.12127687
   17 1     2      0.00000     14.34964      3.02104      0.14962   #   H17   0.37290852   0.14605640   0.00702485
   18 1     2      0.00000     17.76383      6.48549     10.59433   #   H18   0.46163210   0.27484151   0.49742961
   19 1     2      0.00000     17.76381      5.84759      2.37776   #   H19   0.46163209   0.27484148   0.11164179
   20 1     2      0.00000     17.02504      5.65285      7.26553   #   H20   0.44243328   0.24697378   0.34113405
   21 1     1      0.00000     11.43466      4.84802      6.58836   #    C1   0.29715405   0.21046458   0.30933957
   22 1     1      0.00000      9.99515      4.84802      6.58836   #    C2   0.25974503   0.21046464   0.30933951
   23 1     1      0.00000      9.29340      4.26648      7.65024   #    C3   0.24150862   0.17823962   0.35919717
   24 1     1      0.00000      7.89521      4.26541      7.65113   #    C4   0.20517325   0.17818419   0.35923889
   25 1     1      0.00000      7.17972      4.84802      6.58836   #    C5   0.18657892   0.21046468   0.30933940
   26 1     1      0.00000      7.89521      5.43064      5.52559   #    C6   0.20517242   0.24274527   0.25944000
   27 1     1      0.00000      9.29340      5.42957      5.52648   #    C7   0.24150777   0.24268972   0.25948178
   28 1     1      0.00000      5.69429      4.84802      6.58836   #    C8   0.14797637   0.21046464   0.30933935
   29 1     1      0.00000      4.97879      3.71484      7.01827   #    C9   0.12938334   0.15384832   0.32952458
   30 1     1      0.00000      3.58060      3.71587      7.01733   #   C10   0.09304799   0.15390175   0.32948055
   31 1     1      0.00000      2.87885      4.84802      6.58836   #   C11   0.07481023   0.21046458   0.30933938
   32 1     1      0.00000      1.43935      4.84802      6.58836   #   C12   0.03740121   0.21046452   0.30933950
   33 1     1      0.00000      3.58060      5.98017      6.15939   #   C13   0.09304622   0.26702744   0.28919818
   34 1     1      0.00000      4.97879      5.98120      6.15845   #   C14   0.12938157   0.26708097   0.28915407
   35 1     1      0.00000     16.05697      0.92004      6.58842   #   C15   0.41727932   0.01982797   0.30934230
   36 1     1      0.00000     15.42841      9.99913      6.88451   #   C16   0.40093757   0.45934727   0.32324461
   37 1     1      0.00000     16.05720      8.77590      6.58842   #   C17   0.41727930   0.40109608   0.30934232
   38 1     1      0.00000     17.32882      8.78854      5.98966   #   C18   0.45032548   0.40396553   0.28122912
   39 1     1      0.00000     17.95781      9.99905      5.69351   #   C19   0.46667037   0.46383119   0.26732410
   40 1     1      0.00000     17.32859      0.90733      5.98966   #   C20   0.45032548   0.02146700   0.28122908
   41 1     1      0.00000     16.05708      4.54394      2.67227   #   C21   0.41727932   0.21046202   0.12546969
   42 1     1      0.00000     15.09991      3.74923      2.01818   #   C22   0.39240567   0.17435711   0.09475845
   43 1     1      0.00000     15.09991      3.64103      0.62441   #   C23   0.39240565   0.17435715   0.02931738
   44 1     1      0.00000     16.05709      5.15201     10.50457   #   C24   0.41727929   0.21046205   0.49321491
   45 1     1      0.00000     17.01344      5.11935      0.50958   #   C25   0.44213242   0.24653704   0.02392586
   46 1     1      0.00000     17.01344      5.22756      1.90346   #   C26   0.44213241   0.24653703   0.08937201
   47 1     1      0.00000     16.05706      4.98378      9.02410   #   C27   0.41727853   0.20787584   0.42370320
   48 1     1      0.00000     16.05701      4.71217      4.15274   #   C28   0.41727760   0.21304872   0.19498119
   49 1     1      0.00000     16.05709      7.28685      6.53528   #   C29   0.41727752   0.32902830   0.30684716
   50 1     1      0.00000     16.05698      2.40909      6.64156   #   C30   0.41727858   0.09189548   0.31183726
   51 1     3      0.00000     12.59191      4.84802      6.58836   #    N1   0.32722824   0.21046453   0.30933961
   52 1     3      0.00000      0.28209      4.84802      6.58836   #    N2   0.00732705   0.21046450   0.30933960
   53 1     4      0.00000     17.16906      4.76856      4.64958   #    O1   0.44617690   0.21391331   0.21830908
   54 1     4      0.00000     17.16911      4.92735      8.52722   #    O2   0.44617802   0.20700936   0.40037352
   55 1     5      0.00000     17.16912      6.78711      6.51748   #    O3   0.44617682   0.30484150   0.30601144
   56 1     4      0.00000     17.16905      2.90880      6.65932   #    O4   0.44617808   0.11608117   0.31267111
   57 1     4      0.00000     14.94499      6.78714      6.51752   #    O5   0.38837719   0.30484257   0.30601321
   58 1     4      0.00000     14.94498      4.92739      8.52725   #    O6   0.38837840   0.20701121   0.40037526
   59 1     4      0.00000     14.94493      4.76860      4.64960   #    O7   0.38837728   0.21391513   0.21831006
   60 1     4      0.00000     14.94492      2.90884      6.65934   #    O8   0.38837846   0.11608299   0.31267214
   61 1     7      0.00000     14.59185      5.67474     17.23752   #   Zn1   0.37920087   0.21046279   0.80934322
   62 1     6      0.00000     17.52224      5.67470     17.23747   #   Zn2   0.45535443   0.21046095   0.80934110
   63 1     2      0.00000      9.82666      4.64353     19.12840   #    H1   0.25536640   0.15329031   0.89812462
   64 1     2      0.00000      7.37396      4.65156     19.14074   #    H2   0.19162693   0.15363381   0.89870419
   65 1     2      0.00000      7.37396      6.69798     15.33413   #    H3   0.19162548   0.26729566   0.71997467
   66 1     2      0.00000      9.82666      6.70602     15.34648   #    H4   0.25536488   0.26763898   0.72055446
   67 1     2      0.00000      5.50009      3.64816     17.98735   #    H5   0.14293066   0.10928170   0.84454990
   68 1     2      0.00000      3.04740      3.65928     17.99702   #    H6   0.07919125   0.10978461   0.84500392
   69 1     2      0.00000      3.04739      7.69026     16.47785   #    H7   0.07918805   0.31114457   0.77367482
   70 1     2      0.00000      5.50009      7.70138     16.48751   #    H8   0.14292748   0.31164762   0.77412873
   71 1     2      0.00000     14.44869     10.82591     17.99491   #   H10   0.37547660   0.45761049   0.84490483
   72 1     2      0.00000     17.83810      8.69021     16.39894   #   H12   0.46356030   0.35997215   0.76996995
   73 1     2      0.00000     18.93717     10.82578     15.88145   #   H13   0.49212085   0.46556733   0.74567276
   74 1     2      0.00000     17.83792      2.65913     16.39894   #   H14   0.46356031   0.06726598   0.76996988
   75 1     2      0.00000     17.02505      6.36545     16.44427   #   H15   0.44243318   0.24697400   0.77209856
   76 1     2      0.00000     14.34967      4.03671     13.23205   #   H16   0.37290852   0.14605637   0.62127687
   77 1     2      0.00000     14.34966      3.84779     10.79869   #   H17   0.37290852   0.14605640   0.50702485
   78 1     2      0.00000     17.76386      7.31223     21.24341   #   H18   0.46163210   0.27484151   0.99742961
   79 1     2      0.00000     17.76384      6.67433     13.02684   #   H19   0.46163209   0.27484148   0.61164179
   80 1     2      0.00000     17.02506      6.47960     17.91460   #   H20   0.44243328   0.24697378   0.84113405
   81 1     1      0.00000     11.43468      5.67477     17.23744   #    C1   0.29715405   0.21046458   0.80933957
   82 1     1      0.00000      9.99518      5.67477     17.23744   #    C2   0.25974503   0.21046464   0.80933951
   83 1     1      0.00000      9.29342      5.09323     18.29931   #    C3   0.24150862   0.17823962   0.85919717
   84 1     1      0.00000      7.89524      5.09216     18.30020   #    C4   0.20517325   0.17818419   0.85923889
   85 1     1      0.00000      7.17974      5.67477     17.23744   #    C5   0.18657892   0.21046468   0.80933940
   86 1     1      0.00000      7.89524      6.25739     16.17467   #    C6   0.20517242   0.24274527   0.75944000
   87 1     1      0.00000      9.29342      6.25632     16.17556   #    C7   0.24150777   0.24268972   0.75948178
   88 1     1      0.00000      5.69431      5.67477     17.23743   #    C8   0.14797637   0.21046464   0.80933935
   89 1     1      0.00000      4.97882      4.54159     17.66734   #    C9   0.12938334   0.15384832   0.82952458
   90 1     1      0.00000      3.58063      4.54262     17.66640   #   C10   0.09304799   0.15390175   0.82948055
   91 1     1      0.00000      2.87887      5.67477     17.23744   #   C11   0.07481023   0.21046458   0.80933938
   92 1     1      0.00000      1.43937      5.67477     17.23744   #   C12   0.03740121   0.21046452   0.80933950
   93 1     1      0.00000      3.58063      6.80692     16.80846   #   C13   0.09304622   0.26702744   0.78919818
   94 1     1      0.00000      4.97882      6.80795     16.80753   #   C14   0.12938157   0.26708097   0.78915407
   95 1     1      0.00000     16.05699      1.74679     17.23750   #   C15   0.41727932   0.01982797   0.80934230
   96 1     1      0.00000     15.42843     10.82588     17.53359   #   C16   0.40093757   0.45934727   0.82324461
   97 1     1      0.00000     16.05723      9.60265     17.23750   #   C17   0.41727930   0.40109608   0.80934232
   98 1     1      0.00000     17.32885      9.61529     16.63874   #   C18   0.45032548   0.40396553   0.78122912
   99 1     1      0.00000     17.95783     10.82580     16.34259   #   C19   0.46667037   0.46383119   0.76732410
  100 1     1      0.00000     17.32861      1.73408     16.63874   #   C20   0.45032548   0.02146700   0.78122908
  101 1     1      0.00000     16.05710      5.37069     13.32135   #   C21   0.41727932   0.21046202   0.62546969
  102 1     1      0.00000     15.09994      4.57598     12.66726   #   C22   0.39240567   0.17435711   0.59475845
  103 1     1      0.00000     15.09993      4.46778     11.27348   #   C23   0.39240565   0.17435715   0.52931738
  104 1     1      0.00000     16.05712      5.97876     21.15364   #   C24   0.41727929   0.21046205   0.99321491
  105 1     1      0.00000     17.01347      5.94610     11.15865   #   C25   0.44213242   0.24653704   0.52392586
  106 1     1      0.00000     17.01347      6.05431     12.55254   #   C26   0.44213241   0.24653703   0.58937201
  107 1     1      0.00000     16.05708      5.81053     19.67317   #   C27   0.41727853   0.20787584   0.92370320
  108 1     1      0.00000     16.05704      5.53892     14.80182   #   C28   0.41727760   0.21304872   0.69498119
  109 1     1      0.00000     16.05711      8.11360     17.18436   #   C29   0.41727752   0.32902830   0.80684716
  110 1     1      0.00000     16.05701      3.23584     17.29064   #   C30   0.41727858   0.09189548   0.81183726
  111 1     3      0.00000     12.59194      5.67477     17.23744   #    N1   0.32722824   0.21046453   0.80933961
  112 1     3      0.00000      0.28212      5.67477     17.23744   #    N2   0.00732705   0.21046450   0.80933960
  113 1     4      0.00000     17.16909      5.59531     15.29866   #    O1   0.44617690   0.21391331   0.71830908
  114 1     4      0.00000     17.16914      5.75410     19.17629   #    O2   0.44617802   0.20700936   0.90037352
  115 1     5      0.00000     17.16915      7.61386     17.16656   #    O3   0.44617682   0.30484150   0.80601144
  116 1     4      0.00000     17.16908      3.73555     17.30839   #    O4   0.44617808   0.11608117   0.81267111
  117 1     4      0.00000     14.94501      7.61389     17.16659   #    O5   0.38837719   0.30484257   0.80601321
  118 1     4      0.00000     14.94500      5.75414     19.17633   #    O6   0.38837840   0.20701121   0.90037526
  119 1     4      0.00000     14.94496      5.59535     15.29868   #    O7   0.38837728   0.21391513   0.71831006
  120 1     4      0.00000     14.94495      3.73559     17.30842   #    O8   0.38837846   0.11608299   0.81267214
  121 1     7      0.00000     14.59213     15.15027      6.58844   #   Zn1   0.37920087   0.71046279   0.30934322
  122 1     6      0.00000     17.52252     15.15023      6.58839   #   Zn2   0.45535443   0.71046095   0.30934110
  123 1     2      0.00000      9.82694     14.11905      8.47932   #    H1   0.25536640   0.65329031   0.39812462
  124 1     2      0.00000      7.37424     14.12709      8.49166   #    H2   0.19162693   0.65363381   0.39870419
  125 1     2      0.00000      7.37424     16.17351      4.68505   #    H3   0.19162548   0.76729566   0.21997467
  126 1     2      0.00000      9.82694     16.18155      4.69740   #    H4   0.25536488   0.76763898   0.22055446
  127 1     2      0.00000      5.50037     13.12369      7.33828   #    H5   0.14293066   0.60928170   0.34454990
  128 1     2      0.00000      3.04767     13.13480      7.34795   #    H6   0.07919125   0.60978461   0.34500392
  129 1     2      0.00000      3.04767     17.16579      5.82877   #    H7   0.07918805   0.81114457   0.27367482
  130 1     2      0.00000      5.50037     17.17691      5.83844   #    H8   0.14292748   0.81164762   0.27412873
  131 1     2      0.00000     14.44897     20.30144      7.34584   #   H10   0.37547660   0.95761049   0.34490483
  132 1     2      0.00000     17.83837     18.16574      5.74986   #   H12   0.46356030   0.85997215   0.26996995
  133 1     2      0.00000     18.93745     20.30130      5.23238   #   H13   0.49212085   0.96556733   0.24567276
  134 1     2      0.00000     17.83820     12.13466      5.74986   #   H14   0.46356031   0.56726598   0.26996988
  135 1     2      0.00000     17.02533     15.84098      5.79520   #   H15   0.44243318   0.74697400   0.27209856
  136 1     2      0.00000     14.34995     13.51223      2.58297   #   H16   0.37290852   0.64605637   0.12127687
  137 1     2      0.00000     14.34994     13.32332      0.14962   #   H17   0.37290852   0.64605640   0.00702485
  138 1     2      0.00000     17.76414     16.78776     10.59433   #   H18   0.46163210   0.77484151   0.49742961
  139 1     2      0.00000     17.76412     16.14986      2.37776   #   H19   0.46163209   0.77484148   0.11164179
  140 1     2      0.00000     17.02534     15.95513      7.26553   #   H20   0.44243328   0.74697378   0.34113405
  141 1     1      0.00000     11.43496     15.15030      6.58836   #    C1   0.29715405   0.71046458   0.30933957
  142 1     1      0.00000      9.99546     15.15030      6.58836   #    C2   0.25974503   0.71046464   0.30933951
  143 1     1      0.00000      9.29370     14.56876      7.65024   #    C3   0.24150862   0.67823962   0.35919717
  144 1     1      0.00000      7.89551     14.56768      7.65113   #    C4   0.20517325   0.67818419   0.35923889
  145 1     1      0.00000      7.18002     15.15030      6.58836   #    C5   0.18657892   0.71046468   0.30933940
  146 1     1      0.00000      7.89552     15.73292      5.52559   #    C6   0.20517242   0.74274527   0.25944000
  147 1     1      0.00000      9.29370     15.73184      5.52648   #    C7   0.24150777   0.74268972   0.25948178
  148 1     1      0.00000      5.69459     15.15030      6.58836   #    C8   0.14797637   0.71046464   0.30933935
  149 1     1      0.00000      4.97910     14.01712      7.01827   #    C9   0.12938334   0.65384832   0.32952458
  150 1     1      0.00000      3.58091     14.01815      7.01733   #   C10   0.09304799   0.65390175   0.32948055
  151 1     1      0.00000      2.87915     15.15030      6.58836   #   C11   0.07481023   0.71046458   0.30933938
  152 1     1      0.00000      1.43965     15.15030      6.58836   #   C12   0.03740121   0.71046452   0.30933950
  153 1     1      0.00000      3.58091     16.28245      6.15939   #   C13   0.09304622   0.76702744   0.28919818
  154 1     1      0.00000      4.97909     16.28348      6.15845   #   C14   0.12938157   0.76708097   0.28915407
  155 1     1      0.00000     16.05727     11.22232      6.58842   #   C15   0.41727932   0.51982797   0.30934230
  156 1     1      0.00000     15.42871     20.30141      6.88451   #   C16   0.40093757   0.95934727   0.32324461
  157 1     1      0.00000     16.05751     19.07818      6.58842   #   C17   0.41727930   0.90109608   0.30934232
  158 1     1      0.00000     17.32913     19.09082      5.98966   #   C18   0.45032548   0.90396553   0.28122912
  159 1     1      0.00000     17.95811     20.30133      5.69351   #   C19   0.46667037   0.96383119   0.26732410
  160 1     1      0.00000     17.32889     11.20961      5.98966   #   C20   0.45032548   0.52146700   0.28122908
  161 1     1      0.00000     16.05738     14.84622      2.67227   #   C21   0.41727932   0.71046202   0.12546969
  162 1     1      0.00000     15.10022     14.05151      2.01818   #   C22   0.39240567   0.67435711   0.09475845
  163 1     1      0.00000     15.10021     13.94330      0.62441   #   C23   0.39240565   0.67435715   0.02931738
  164 1     1      0.00000     16.05740     15.45428     10.50457   #   C24   0.41727929   0.71046205   0.49321491
  165 1     1      0.00000     17.01375     15.42162      0.50958   #   C25   0.44213242   0.74653704   0.02392586
  166 1     1      0.00000     17.01375     15.52984      1.90346   #   C26   0.44213241   0.74653703   0.08937201
  167 1     1      0.00000     16.05736     15.28606      9.02410   #   C27   0.41727853   0.70787584   0.42370320
  168 1     1      0.00000     16.05732     15.01445      4.15274   #   C28   0.41727760   0.71304872   0.19498119
  169 1     1      0.00000     16.05739     17.58913      6.53528   #   C29   0.41727752   0.82902830   0.30684716
  170 1     1      0.00000     16.05729     12.71136      6.64156   #   C30   0.41727858   0.59189548   0.31183726
  171 1     3      0.00000     12.59222     15.15030      6.58836   #    N1   0.32722824   0.71046453   0.30933961
  172 1     3      0.00000      0.28239     15.15030      6.58836   #    N2   0.00732705   0.71046450   0.30933960
  173 1     4      0.00000     17.16937     15.07084      4.64958   #    O1   0.44617690   0.71391331   0.21830908
  174 1     4      0.00000     17.16942     15.22963      8.52722   #    O2   0.44617802   0.70700936   0.40037352
  175 1     5      0.00000     17.16942     17.08939      6.51748   #    O3   0.44617682   0.80484150   0.30601144
  176 1     4      0.00000     17.16936     13.21108      6.65932   #    O4   0.44617808   0.61608117   0.31267111
  177 1     4      0.00000     14.94529     17.08941      6.51752   #    O5   0.38837719   0.80484257   0.30601321
  178 1     4      0.00000     14.94528     15.22967      8.52725   #    O6   0.38837840   0.70701121   0.40037526
  179 1     4      0.00000     14.94523     15.07088      4.64960   #    O7   0.38837728   0.71391513   0.21831006
  180 1     4      0.00000     14.94522     13.21112      6.65934   #    O8   0.38837846   0.61608299   0.31267214
  181 1     7      0.00000     14.59215     15.97702     17.23752   #   Zn1   0.37920087   0.71046279   0.80934322
  182 1     6      0.00000     17.52255     15.97697     17.23747   #   Zn2   0.45535443   0.71046095   0.80934110
  183 1     2      0.00000      9.82696     14.94580     19.12840   #    H1   0.25536640   0.65329031   0.89812462
  184 1     2      0.00000      7.37426     14.95384     19.14074   #    H2   0.19162693   0.65363381   0.89870419
  185 1     2      0.00000      7.37427     17.00026     15.33413   #    H3   0.19162548   0.76729566   0.71997467
  186 1     2      0.00000      9.82697     17.00829     15.34648   #    H4   0.25536488   0.76763898   0.72055446
  187 1     2      0.00000      5.50040     13.95044     17.98735   #    H5   0.14293066   0.60928170   0.84454990
  188 1     2      0.00000      3.04770     13.96155     17.99702   #    H6   0.07919125   0.60978461   0.84500392
  189 1     2      0.00000      3.04770     17.99254     16.47785   #    H7   0.07918805   0.81114457   0.77367482
  190 1     2      0.00000      5.50039     18.00366     16.48751   #    H8   0.14292748   0.81164762   0.77412873
  191 1     2      0.00000     14.44900     21.12819     17.99491   #   H10   0.37547660   0.95761049   0.84490483
  192 1     2      0.00000     17.83840     18.99249     16.39894   #   H12   0.46356030   0.85997215   0.76996995
  193 1     2      0.00000     18.93748     21.12805     15.88145   #   H13   0.49212085   0.96556733   0.74567276
  194 1     2      0.00000     17.83822     12.96141     16.39894   #   H14   0.46356031   0.56726598   0.76996988
  195 1     2      0.00000     17.02536     16.66773     16.44427   #   H15   0.44243318   0.74697400   0.77209856
  196 1     2      0.00000     14.34997     14.33898     13.23205   #   H16   0.37290852   0.64605637   0.62127687
  197 1     2      0.00000     14.34997     14.15007     10.79869   #   H17   0.37290852   0.64605640   0.50702485
  198 1     2      0.00000     17.76416     17.61451     21.24341   #   H18   0.46163210   0.77484151   0.99742961
  199 1     2      0.00000     17.76414     16.97661     13.02684   #   H19   0.46163209   0.77484148   0.61164179
  200 1     2      0.00000     17.02537     16.78188     17.91460   #   H20   0.44243328   0.74697378   0.84113405
  201 1     1      0.00000     11.43499     15.97705     17.23744   #    C1   0.29715405   0.71046458   0.80933957
  202 1     1      0.00000      9.99548     15.97705     17.23744   #    C2   0.25974503   0.71046464   0.80933951
  203 1     1      0.00000      9.29373     15.39551     18.29931   #    C3   0.24150862   0.67823962   0.85919717
  204 1     1      0.00000      7.89554     15.39443     18.30020   #    C4   0.20517325   0.67818419   0.85923889
  205 1     1      0.00000      7.18005     15.97705     17.23744   #    C5   0.18657892   0.71046468   0.80933940
  206 1     1      0.00000      7.89554     16.55967     16.17467   #    C6   0.20517242   0.74274527   0.75944000
  207 1     1      0.00000      9.29373     16.55859     16.17556   #    C7   0.24150777   0.74268972   0.75948178
  208 1     1      0.00000      5.69462     15.97705     17.23743   #    C8   0.14797637   0.71046464   0.80933935
  209 1     1      0.00000      4.97912     14.84387     17.66734   #    C9   0.12938334   0.65384832   0.82952458
  210 1     1      0.00000      3.58093     14.84490     17.66640   #   C10   0.09304799   0.65390175   0.82948055
  211 1     1      0.00000      2.87918     15.97705     17.23744   #   C11   0.07481023   0.71046458   0.80933938
  212 1     1      0.00000      1.43968     15.97705     17.23744   #   C12   0.03740121   0.71046452   0.80933950
  213 1     1      0.00000      3.58093     17.10920     16.80846   #   C13   0.09304622   0.76702744   0.78919818
  214 1     1      0.00000      4.97912     17.11023     16.80753   #   C14   0.12938157   0.76708097   0.78915407
  215 1     1      0.00000     16.05730     12.04907     17.23750   #   C15   0.41727932   0.51982797   0.80934230
  216 1     1      0.00000     15.42874     21.12816     17.53359   #   C16   0.40093757   0.95934727   0.82324461
  217 1     1      0.00000     16.05753     19.90493     17.23750   #   C17   0.41727930   0.90109608   0.80934232
  218 1     1      0.00000     17.32915     19.91757     16.63874   #   C18   0.45032548   0.90396553   0.78122912
  219 1     1      0.00000     17.95814     21.12808     16.34259   #   C19   0.46667037   0.96383119   0.76732410