Created by Ryther's code on 2025-08-05 19:28:46.744194, modified by xyan11@uic.edu. 

    600 atoms
    712 bonds
    1400 angles
    1424 dihedrals
    288 impropers

    7 atom types
    11 bond types
    24 angle types
    5 dihedral types
    2 improper types

0.00000000 37.45364258 xlo xhi
0.00000000 20.59783732 ylo yhi
0.00000000 20.5336174 zlo zhi
-0.26406672 -0.00326595 1.58692441 xy xz yz 

Masses 

    1    12.0107  #   C
    2 18.9984032  #   F
    3    1.00794  #   H
    4    14.0067  #   N
    5    15.9994  #   O
    6     32.065  #   S
    7      65.38  #  Zn

Pair Coeffs

    1       0.10500      3.43085  #  C_R C_R
    2       0.05000      2.99698  #  F_ F_
    3       0.04400      2.57113  #  H_ H_
    4       0.06900      3.26069  #  N_2 N_2
    5       0.06000      3.11815  #  O_2_M O_2_M
    6       0.27400      3.59478  #  S_3 S_3
    7       0.12400      2.46155  #  Zn4+2 Zn4+2

Bond Coeffs

    1      48.90184      1.84943  #  H_ Zn4+2 bond order=0.5
    2     104.44141      2.12294  #  O_2_M Zn4+2 bond order=0.5
    3     103.61325      2.20128  #  N_2 Zn4+2 bond order=0.5
    4     357.44038      1.08142  #  C_R H_ bond order=1.0
    5     428.55742      0.98551  #  F_ H_ bond order=1.0
    6     462.65505      1.37926  #  C_R C_R bond order=1.5
    7     931.53598      1.20133  #  C_R N_2 bond order=3.0
    8     301.29678      1.78592  #  C_R S_3 bond order=1.0
    9     391.66951      1.45800  #  C_R C_R bond order=1.0
    10    443.20330      1.35457  #  C_R F_ bond order=1.0
    11    714.55744      1.26901  #  C_R O_2_M bond order=1.5

Angle Coeffs

    1  cosine/periodic         36.20045            1            4  #  H_ Zn4+2 O_2_M
    2  cosine/periodic         37.39156            1            4  #  H_ Zn4+2 N_2
    3  cosine/periodic         14.11273            1            4  #  H_ Zn4+2 H_
    4  cosine/periodic        101.82219            1            4  #  N_2 Zn4+2 O_2_M
    5  cosine/periodic         97.36576            1            4  #  O_2_M Zn4+2 O_2_M
    6  cosine/periodic         11.23300            1            1  #  Zn4+2 H_ Zn4+2
    7  cosine/periodic        124.74582            1            1  #  C_R H_ F_
    8  cosine/periodic        179.74893           -1            3  #  C_R C_R N_2
    9  cosine/periodic        111.29751           -1            3  #  C_R C_R C_R
    10 cosine/periodic        101.95051           -1            3  #  C_R C_R S_3
    11 cosine/periodic         57.28902           -1            3  #  C_R C_R H_
    12 cosine/periodic        102.18328           -1            3  #  C_R C_R C_R
    13 cosine/periodic         95.48191           -1            3  #  C_R C_R S_3
    14 cosine/periodic         94.22104           -1            3  #  C_R C_R C_R
    15 cosine/periodic         51.62857           -1            3  #  C_R C_R H_
    16 cosine/periodic         95.11525           -1            3  #  C_R C_R F_
    17 cosine/periodic        103.74445           -1            3  #  C_R C_R F_
    18 cosine/periodic         48.24065           -1            3  #  H_ C_R S_3
    19 cosine/periodic        137.71425           -1            3  #  C_R C_R O_2_M
    20 cosine/periodic        206.77843           -1            3  #  O_2_M C_R O_2_M
    21 fourier                211.54307      0.25101      0.03669      0.25034  #  C_R S_3 C_R
    22 fourier                 84.89470      0.36401      0.41847      0.28800  #  C_R N_2 Zn4+2
    23 cosine/periodic         37.72922           -1            3  #  C_R O_2_M Zn4+2
    24 cosine/periodic         35.27708            1            1  #  C_R F_ H_

Dihedral Coeffs

    1       6.73711           -1            2  #  X C_R C_R X bond order=1.5
    2      27.96100           -1            2  #  X C_R N_2 X bond order=3.0
    3       1.22984           -1            2  #  X C_R S_3 X bond order=1.0
    4       1.25000           -1            2  #  X C_R C_R X bond order=1.0
    5       6.73711           -1            2  #  X C_R O_2_M X bond order=1.5

Improper Coeffs

    1       2.00000      1.00000     -1.00000      0.00000            1  #  C_R X X X O_2 present=False
    2      16.66667      1.00000     -1.00000      0.00000            1  #  C_R X X X O_2 present=True

Atoms # a, b, c, alpha, beta, gamma: 37.4536425762, 20.5995299309, 20.5948484626, 85.5809725804, 90.0090860282, 90.7344984577 $$$atoms$$$

    1 1     7      0.00000     14.53536      4.96662      5.80905   #   Zn1   0.38966039   0.21932731   0.28290432
    2 1     7      0.00000     17.46552      5.00329      5.80597   #   Zn2   0.46790743   0.22111912   0.28275419
    3 1     3      0.00000     10.28447      2.01458      6.03660   #    H1   0.27514753   0.07515568   0.29398626
    4 1     3      0.00000      7.72856      1.79491      6.04381   #    H2   0.20683021   0.06446421   0.29433713
    5 1     3      0.00000      5.55592      2.18106      6.49018   #    H3   0.14894375   0.08153612   0.31607559
    6 1     3      0.00000      3.14589      2.56363      6.44331   #    H4   0.08472853   0.10028557   0.31379312
    7 1     3      0.00000      3.79570      6.64724      5.24300   #    H5   0.10350280   0.30304324   0.25533750
    8 1     3      0.00000      6.21332      6.28116      5.26911   #    H6   0.16792648   0.28517251   0.25660915
    9 1     3      0.00000     15.97312      4.43323      6.34147   #    H7   0.42785365   0.19143451   0.30883341
   10 1     3      0.00000     16.17383      1.98532      3.86436   #    H8   0.43242970   0.08188562   0.18819670
   11 1     3      0.00000     16.06450      7.98763      3.86238   #    H9   0.43156517   0.37329792   0.18810046
   12 1     3      0.00000     15.82621     10.13303      7.58161   #   H10   0.42585470   0.46349952   0.36922928
   13 1     3      0.00000     15.96270      5.53584      6.34169   #   H11   0.42795280   0.24496402   0.30884450
   14 1     3      0.00000     17.63481      8.55449      2.10756   #   H12   0.47372487   0.40740244   0.10263972
   15 1     3      0.00000     17.76414      9.35179      9.91725   #   H13   0.47727741   0.41680788   0.48297629
   16 1     3      0.00000     14.99581      2.21481      9.74271   #   H14   0.40092496   0.07097095   0.47447613
   17 1     3      0.00000     14.82863      1.42134      1.93072   #   H15   0.39636329   0.06176041   0.09402725
   18 1     3      0.00000     15.48488      4.76789      5.27046   #   H16   0.41495622   0.21170013   0.25667447
   19 1     3      0.00000     17.82315      5.40160      2.77235   #   H17   0.47765950   0.25183891   0.13501538
   20 1     3      0.00000     17.83879      5.84537      8.75074   #   H18   0.47809640   0.25095230   0.42616667
   21 1     3      0.00000     14.32276      4.00714      0.71625   #   H19   0.38376865   0.19185434   0.03488182
   22 1     3      0.00000      1.34413      5.54567      2.66148   #   H21   0.03772692   0.25924967   0.12961569
   23 1     3      0.00000      3.64374      6.46747      2.00016   #   H22   0.09945600   0.30648328   0.09740902
   24 1     3      0.00000      3.83691      7.83969      9.72853   #   H23   0.10491173   0.34410563   0.47378543
   25 1     1      0.00000     11.43029      4.60034      5.84001   #    C1   0.30663003   0.20142882   0.28441192
   26 1     1      0.00000     10.05860      4.17689      5.87594   #    C2   0.26986049   0.18073605   0.28616183
   27 1     1      0.00000      9.61971      2.86664      5.97593   #    C3   0.25769155   0.11674981   0.29103166
   28 1     1      0.00000      8.22366      2.75365      5.98498   #    C4   0.22037862   0.11123033   0.29147203
   29 1     1      0.00000      7.55969      3.98078      5.89244   #    C5   0.20307286   0.17115343   0.28696542
   30 1     1      0.00000      6.08958      4.19811      5.87465   #    C6   0.16389644   0.18177093   0.28609893
   31 1     1      0.00000      5.19668      3.15927      6.20400   #    C7   0.13969332   0.13010109   0.30213879
   32 1     1      0.00000      3.81530      3.37550      6.18478   #    C8   0.10288541   0.14067094   0.30120276
   33 1     1      0.00000      3.30433      4.63045      5.83841   #    C9   0.08967992   0.20289661   0.28433407
   34 1     1      0.00000      1.88194      4.85106      5.81926   #   C10   0.05177837   0.21367882   0.28340148
   35 1     1      0.00000      4.18027      5.67082      5.51273   #   C11   0.11343053   0.25462726   0.26847347
   36 1     1      0.00000      5.56194      5.45795      5.53160   #   C12   0.15024735   0.24422187   0.26939257
   37 1     1      0.00000     16.04960      1.05733      5.80743   #   C13   0.42875194   0.02954237   0.28282565
   38 1     1      0.00000     16.13525      1.04817      4.40592   #   C14   0.43106693   0.03435630   0.21457118
   39 1     1      0.00000     16.06337     10.13607      3.69583   #   C15   0.43227425   0.47822674   0.17998904
   40 1     1      0.00000     16.03684      8.92393      4.40608   #   C16   0.43113504   0.41671407   0.21457879
   41 1     1      0.00000     15.95141      8.91258      5.80759   #   C17   0.42881930   0.41090445   0.28283314
   42 1     1      0.00000     15.89220     10.13387      6.50041   #   C18   0.42764091   0.46759728   0.31657424
   43 1     1      0.00000     16.15386     10.13723      2.21312   #   C19   0.43472365   0.48384629   0.10778038
   44 1     1      0.00000     17.01444      9.24335      1.54803   #   C20   0.45740957   0.44294533   0.07538990
   45 1     1      0.00000     17.09805      9.24681      0.15228   #   C21   0.45967414   0.44835013   0.00741630
   46 1     1      0.00000     16.32357     10.93288      9.67243   #   C22   0.43936146   0.49448658   0.47105323
   47 1     1      0.00000     15.59924      0.73201      0.05415   #   C23   0.41674399   0.03533527   0.00263695
   48 1     1      0.00000     15.51250      0.73330      1.44970   #   C24   0.41439754   0.03016126   0.07060147
   49 1     1      0.00000     16.00025      4.68097      1.89136   #   C25   0.42876158   0.22015899   0.09211039
   50 1     1      0.00000     17.32746      5.13850      1.84854   #   C26   0.46435544   0.24253219   0.09002527
   51 1     1      0.00000     18.00547      5.27650      0.62395   #   C27   0.48253250   0.25382667   0.03038679
   52 1     1      0.00000     17.32845      5.74836      9.70031   #   C28   0.46441620   0.24267999   0.47241139
   53 1     1      0.00000     16.00077      5.28894      9.72366   #   C29   0.42880965   0.22028781   0.47354841
   54 1     1      0.00000     15.34618      4.36066      0.69023   #   C30   0.41121520   0.20911513   0.03361481
   55 1     1      0.00000      0.68307      5.76103      0.57913   #   C31   0.02019673   0.27751828   0.02820402
   56 1     1      0.00000      1.57542      5.84570      1.64922   #   C32   0.04402749   0.27761389   0.08031809
   57 1     1      0.00000      2.83552      6.34238      1.29200   #   C33   0.07784960   0.30306727   0.06292107
   58 1     1      0.00000      2.95306      7.44668     10.21230   #   C34   0.08116798   0.32321005   0.49734532
   59 1     1      0.00000     16.00130      5.12074      8.24319   #   C35   0.42879932   0.21767663   0.40144840
   60 1     1      0.00000     15.99961      4.84918      3.37183   #   C36   0.42876936   0.22277064   0.16421016
   61 1     1      0.00000     15.96990      7.42364      5.75442   #   C37   0.42880440   0.33881798   0.28024368
   62 1     1      0.00000     16.03101      2.54626      5.86060   #   C38   0.42876425   0.10162850   0.28541493
   63 1     6      0.00000      8.72972      5.19636      5.79672   #    S1   0.23473068   0.23052724   0.28230400
   64 1     6      0.00000      1.48848      7.10026      9.46839   #    S2   0.04196196   0.30918288   0.46111635
   65 1     4      0.00000     12.53561      4.94159      5.81105   #    N1   0.33625902   0.21810494   0.28300154
   66 1     4      0.00000      0.73845      5.02841      5.80386   #    N2   0.02130881   0.22234682   0.28265165
   67 1     5      0.00000     17.11138      4.91949      3.86752   #    O1   0.45846631   0.22432428   0.18835053
   68 1     5      0.00000     17.11346      5.07825      7.74516   #    O2   0.45849005   0.21748244   0.37719390
   69 1     5      0.00000     17.08809      6.93787      5.73545   #    O3   0.45849376   0.31530561   0.27932023
   70 1     5      0.00000     17.13675      3.05987      5.87722   #    O4   0.45846258   0.12650112   0.28622416
   71 1     5      0.00000     14.86413      6.91004      5.73780   #    O5   0.39910521   0.31394531   0.27943435
   72 1     5      0.00000     14.88950      5.05042      7.74750   #    O6   0.39910151   0.21612293   0.37730799
   73 1     5      0.00000     14.88742      4.89167      3.86984   #    O7   0.39907776   0.22296474   0.18846383
   74 1     5      0.00000     14.91280      3.03204      5.87954   #    O8   0.39907403   0.12514157   0.28633751
   75 1     2      0.00000     16.40616     10.93393      8.31915   #    F1   0.44159696   0.49961537   0.40514763
   76 1     7      0.00000     14.53373      5.76008     16.07586   #   Zn1   0.38966039   0.21932731   0.78290432
   77 1     7      0.00000     17.46389      5.79675     16.07278   #   Zn2   0.46790743   0.22111912   0.78275419
   78 1     3      0.00000     10.28284      2.80804     16.30341   #    H1   0.27514753   0.07515568   0.79398626
   79 1     3      0.00000      7.72693      2.58838     16.31061   #    H2   0.20683021   0.06446421   0.79433713
   80 1     3      0.00000      5.55429      2.97452     16.75698   #    H3   0.14894375   0.08153612   0.81607559
   81 1     3      0.00000      3.14425      3.35709     16.71012   #    H4   0.08472853   0.10028557   0.81379312
   82 1     3      0.00000      3.79407      7.44070     15.50981   #    H5   0.10350280   0.30304324   0.75533750
   83 1     3      0.00000      6.21168      7.07462     15.53592   #    H6   0.16792648   0.28517251   0.75660915
   84 1     3      0.00000     15.97148      5.22669     16.60828   #    H7   0.42785365   0.19143451   0.80883341
   85 1     3      0.00000     16.17220      2.77878     14.13117   #    H8   0.43242970   0.08188562   0.68819670
   86 1     3      0.00000     16.06286      8.78109     14.12919   #    H9   0.43156517   0.37329792   0.68810046
   87 1     3      0.00000     15.82458     10.92649     17.84842   #   H10   0.42585470   0.46349952   0.86922928
   88 1     3      0.00000     15.96106      6.32930     16.60850   #   H11   0.42795280   0.24496402   0.80884450
   89 1     3      0.00000     17.63317      9.34795     12.37437   #   H12   0.47372487   0.40740244   0.60263972
   90 1     3      0.00000     17.76250     10.14525     20.18406   #   H13   0.47727741   0.41680788   0.98297629
   91 1     3      0.00000     14.99418      3.00827     20.00952   #   H14   0.40092496   0.07097095   0.97447613
   92 1     3      0.00000     14.82700      2.21481     12.19753   #   H15   0.39636329   0.06176041   0.59402725
   93 1     3      0.00000     15.48325      5.56135     15.53726   #   H16   0.41495622   0.21170013   0.75667447
   94 1     3      0.00000     17.82151      6.19506     13.03916   #   H17   0.47765950   0.25183891   0.63501538
   95 1     3      0.00000     17.83716      6.63883     19.01755   #   H18   0.47809640   0.25095230   0.92616667
   96 1     3      0.00000     14.32112      4.80060     10.98306   #   H19   0.38376865   0.19185434   0.53488182
   97 1     3      0.00000      1.34250      6.33913     12.92829   #   H21   0.03772692   0.25924967   0.62961569
   98 1     3      0.00000      3.64211      7.26094     12.26697   #   H22   0.09945600   0.30648328   0.59740902
   99 1     3      0.00000      3.83528      8.63316     19.99534   #   H23   0.10491173   0.34410563   0.97378543
  100 1     1      0.00000     11.42866      5.39380     16.10681   #    C1   0.30663003   0.20142882   0.78441192
  101 1     1      0.00000     10.05696      4.97035     16.14275   #    C2   0.26986049   0.18073605   0.78616183
  102 1     1      0.00000      9.61807      3.66010     16.24274   #    C3   0.25769155   0.11674981   0.79103166
  103 1     1      0.00000      8.22202      3.54711     16.25178   #    C4   0.22037862   0.11123033   0.79147203
  104 1     1      0.00000      7.55805      4.77425     16.15925   #    C5   0.20307286   0.17115343   0.78696542
  105 1     1      0.00000      6.08795      4.99157     16.14145   #    C6   0.16389644   0.18177093   0.78609893
  106 1     1      0.00000      5.19505      3.95273     16.47081   #    C7   0.13969332   0.13010109   0.80213879
  107 1     1      0.00000      3.81367      4.16897     16.45159   #    C8   0.10288541   0.14067094   0.80120276
  108 1     1      0.00000      3.30270      5.42391     16.10522   #    C9   0.08967992   0.20289661   0.78433407
  109 1     1      0.00000      1.88030      5.64452     16.08607   #   C10   0.05177837   0.21367882   0.78340148
  110 1     1      0.00000      4.17864      6.46428     15.77954   #   C11   0.11343053   0.25462726   0.76847347
  111 1     1      0.00000      5.56031      6.25141     15.79841   #   C12   0.15024735   0.24422187   0.76939257
  112 1     1      0.00000     16.04796      1.85079     16.07424   #   C13   0.42875194   0.02954237   0.78282565
  113 1     1      0.00000     16.13362      1.84164     14.67273   #   C14   0.43106693   0.03435630   0.71457118
  114 1     1      0.00000     16.06174     10.92953     13.96263   #   C15   0.43227425   0.47822674   0.67998904
  115 1     1      0.00000     16.03520      9.71739     14.67289   #   C16   0.43113504   0.41671407   0.71457879
  116 1     1      0.00000     15.94978      9.70604     16.07440   #   C17   0.42881930   0.41090445   0.78283314
  117 1     1      0.00000     15.89057     10.92733     16.76722   #   C18   0.42764091   0.46759728   0.81657424
  118 1     1      0.00000     16.15223     10.93069     12.47993   #   C19   0.43472365   0.48384629   0.60778038
  119 1     1      0.00000     17.01281     10.03682     11.81484   #   C20   0.45740957   0.44294533   0.57538990
  120 1     1      0.00000     17.09642     10.04027     10.41909   #   C21   0.45967414   0.44835013   0.50741630
  121 1     1      0.00000     16.32194     11.72634     19.93924   #   C22   0.43936146   0.49448658   0.97105323
  122 1     1      0.00000     15.59761      1.52548     10.32095   #   C23   0.41674399   0.03533527   0.50263695
  123 1     1      0.00000     15.51087      1.52676     11.71651   #   C24   0.41439754   0.03016126   0.57060147
  124 1     1      0.00000     15.99861      5.47443     12.15817   #   C25   0.42876158   0.22015899   0.59211039
  125 1     1      0.00000     17.32583      5.93196     12.11535   #   C26   0.46435544   0.24253219   0.59002527
  126 1     1      0.00000     18.00384      6.06996     10.89076   #   C27   0.48253250   0.25382667   0.53038679
  127 1     1      0.00000     17.32682      6.54183     19.96712   #   C28   0.46441620   0.24267999   0.97241139
  128 1     1      0.00000     15.99913      6.08240     19.99047   #   C29   0.42880965   0.22028781   0.97354841
  129 1     1      0.00000     15.34454      5.15413     10.95704   #   C30   0.41121520   0.20911513   0.53361481
  130 1     1      0.00000      0.68143      6.55450     10.84594   #   C31   0.02019673   0.27751828   0.52820402
  131 1     1      0.00000      1.57379      6.63917     11.91603   #   C32   0.04402749   0.27761389   0.58031809
  132 1     1      0.00000      2.83388      7.13584     11.55881   #   C33   0.07784960   0.30306727   0.56292107
  133 1     1      0.00000      2.95143      8.24014     20.47911   #   C34   0.08116798   0.32321005   0.99734532
  134 1     1      0.00000     15.99967      5.91420     18.51000   #   C35   0.42879932   0.21767663   0.90144840
  135 1     1      0.00000     15.99798      5.64264     13.63864   #   C36   0.42876936   0.22277064   0.66421016
  136 1     1      0.00000     15.96827      8.21711     16.02123   #   C37   0.42880440   0.33881798   0.78024368
  137 1     1      0.00000     16.02938      3.33972     16.12741   #   C38   0.42876425   0.10162850   0.78541493
  138 1     6      0.00000      8.72809      5.98982     16.06353   #    S1   0.23473068   0.23052724   0.78230400
  139 1     6      0.00000      1.48684      7.89372     19.73520   #    S2   0.04196196   0.30918288   0.96111635
  140 1     4      0.00000     12.53397      5.73505     16.07785   #    N1   0.33625902   0.21810494   0.78300154
  141 1     4      0.00000      0.73682      5.82187     16.07067   #    N2   0.02130881   0.22234682   0.78265165
  142 1     5      0.00000     17.10975      5.71296     14.13433   #    O1   0.45846631   0.22432428   0.68835053
  143 1     5      0.00000     17.11183      5.87171     18.01196   #    O2   0.45849005   0.21748244   0.87719390
  144 1     5      0.00000     17.08645      7.73134     16.00226   #    O3   0.45849376   0.31530561   0.77932023
  145 1     5      0.00000     17.13512      3.85333     16.14403   #    O4   0.45846258   0.12650112   0.78622416
  146 1     5      0.00000     14.86250      7.70350     16.00461   #    O5   0.39910521   0.31394531   0.77943435
  147 1     5      0.00000     14.88787      5.84389     18.01431   #    O6   0.39910151   0.21612293   0.87730799
  148 1     5      0.00000     14.88579      5.68513     14.13665   #    O7   0.39907776   0.22296474   0.68846383
  149 1     5      0.00000     14.91116      3.82550     16.14635   #    O8   0.39907403   0.12514157   0.78633751
  150 1     2      0.00000     16.40453     11.72740     18.58596   #    F1   0.44159696   0.49961537   0.90514763
  151 1     7      0.00000     14.40333     15.26553      5.80905   #   Zn1   0.38966039   0.71932731   0.28290432
  152 1     7      0.00000     17.33349     15.30220      5.80597   #   Zn2   0.46790743   0.72111912   0.28275419
  153 1     3      0.00000     10.15244     12.31350      6.03660   #    H1   0.27514753   0.57515568   0.29398626
  154 1     3      0.00000      7.59653     12.09383      6.04381   #    H2   0.20683021   0.56446421   0.29433713
  155 1     3      0.00000      5.42389     12.47997      6.49018   #    H3   0.14894375   0.58153612   0.31607559
  156 1     3      0.00000      3.01385     12.86255      6.44331   #    H4   0.08472853   0.60028557   0.31379312
  157 1     3      0.00000      3.66367     16.94616      5.24300   #    H5   0.10350280   0.80304324   0.25533750
  158 1     3      0.00000      6.08128     16.58008      5.26911   #    H6   0.16792648   0.78517251   0.25660915
  159 1     3      0.00000     15.84108     14.73215      6.34147   #    H7   0.42785365   0.69143451   0.30883341
  160 1     3      0.00000     16.04180     12.28424      3.86436   #    H8   0.43242970   0.58188562   0.18819670
  161 1     3      0.00000     15.93246     18.28655      3.86238   #    H9   0.43156517   0.87329792   0.18810046
  162 1     3      0.00000     15.69418     20.43195      7.58161   #   H10   0.42585470   0.96349952   0.36922928
  163 1     3      0.00000     15.83066     15.83476      6.34169   #   H11   0.42795280   0.74496402   0.30884450
  164 1     3      0.00000     17.50277     18.85341      2.10756   #   H12   0.47372487   0.90740244   0.10263972
  165 1     3      0.00000     17.63210     19.65071      9.91725   #   H13   0.47727741   0.91680788   0.48297629
  166 1     3      0.00000     14.86378     12.51372      9.74271   #   H14   0.40092496   0.57097095   0.47447613
  167 1     3      0.00000     14.69660     11.72026      1.93072   #   H15   0.39636329   0.56176041   0.09402725
  168 1     3      0.00000     15.35285     15.06681      5.27046   #   H16   0.41495622   0.71170013   0.25667447
  169 1     3      0.00000     17.69111     15.70051      2.77235   #   H17   0.47765950   0.75183891   0.13501538
  170 1     3      0.00000     17.70676     16.14429      8.75074   #   H18   0.47809640   0.75095230   0.42616667
  171 1     3      0.00000     14.19072     14.30606      0.71625   #   H19   0.38376865   0.69185434   0.03488182
  172 1     3      0.00000      1.21209     15.84459      2.66148   #   H21   0.03772692   0.75924967   0.12961569
  173 1     3      0.00000      3.51171     16.76639      2.00016   #   H22   0.09945600   0.80648328   0.09740902
  174 1     3      0.00000      3.70488     18.13861      9.72853   #   H23   0.10491173   0.84410563   0.47378543
  175 1     1      0.00000     11.29826     14.89926      5.84001   #    C1   0.30663003   0.70142882   0.28441192
  176 1     1      0.00000      9.92656     14.47581      5.87594   #    C2   0.26986049   0.68073605   0.28616183
  177 1     1      0.00000      9.48767     13.16556      5.97593   #    C3   0.25769155   0.61674981   0.29103166
  178 1     1      0.00000      8.09162     13.05257      5.98498   #    C4   0.22037862   0.61123033   0.29147203
  179 1     1      0.00000      7.42765     14.27970      5.89244   #    C5   0.20307286   0.67115343   0.28696542
  180 1     1      0.00000      5.95755     14.49702      5.87465   #    C6   0.16389644   0.68177093   0.28609893
  181 1     1      0.00000      5.06465     13.45819      6.20400   #    C7   0.13969332   0.63010109   0.30213879
  182 1     1      0.00000      3.68327     13.67442      6.18478   #    C8   0.10288541   0.64067094   0.30120276
  183 1     1      0.00000      3.17230     14.92937      5.83841   #    C9   0.08967992   0.70289661   0.28433407
  184 1     1      0.00000      1.74990     15.14998      5.81926   #   C10   0.05177837   0.71367882   0.28340148
  185 1     1      0.00000      4.04824     15.96974      5.51273   #   C11   0.11343053   0.75462726   0.26847347
  186 1     1      0.00000      5.42991     15.75687      5.53160   #   C12   0.15024735   0.74422187   0.26939257
  187 1     1      0.00000     15.91756     11.35625      5.80743   #   C13   0.42875194   0.52954237   0.28282565
  188 1     1      0.00000     16.00322     11.34709      4.40592   #   C14   0.43106693   0.53435630   0.21457118
  189 1     1      0.00000     15.93134     20.43498      3.69583   #   C15   0.43227425   0.97822674   0.17998904
  190 1     1      0.00000     15.90480     19.22285      4.40608   #   C16   0.43113504   0.91671407   0.21457879
  191 1     1      0.00000     15.81938     19.21150      5.80759   #   C17   0.42881930   0.91090445   0.28283314
  192 1     1      0.00000     15.76017     20.43279      6.50041   #   C18   0.42764091   0.96759728   0.31657424
  193 1     1      0.00000     16.02183     20.43615      2.21312   #   C19   0.43472365   0.98384629   0.10778038
  194 1     1      0.00000     16.88241     19.54227      1.54803   #   C20   0.45740957   0.94294533   0.07538990
  195 1     1      0.00000     16.96602     19.54573      0.15228   #   C21   0.45967414   0.94835013   0.00741630
  196 1     1      0.00000     16.19154     21.23180      9.67243   #   C22   0.43936146   0.99448658   0.47105323
  197 1     1      0.00000     15.46721     11.03093      0.05415   #   C23   0.41674399   0.53533527   0.00263695
  198 1     1      0.00000     15.38047     11.03221      1.44970   #   C24   0.41439754   0.53016126   0.07060147
  199 1     1      0.00000     15.86821     14.97989      1.89136   #   C25   0.42876158   0.72015899   0.09211039
  200 1     1      0.00000     17.19543     15.43742      1.84854   #   C26   0.46435544   0.74253219   0.09002527
  201 1     1      0.00000     17.87344     15.57542      0.62395   #   C27   0.48253250   0.75382667   0.03038679
  202 1     1      0.00000     17.19642     16.04728      9.70031   #   C28   0.46441620   0.74267999   0.47241139
  203 1     1      0.00000     15.86873     15.58786      9.72366   #   C29   0.42880965   0.72028781   0.47354841
  204 1     1      0.00000     15.21414     14.65958      0.69023   #   C30   0.41121520   0.70911513   0.03361481
  205 1     1      0.00000      0.55103     16.05995      0.57913   #   C31   0.02019673   0.77751828   0.02820402
  206 1     1      0.00000      1.44339     16.14462      1.64922   #   C32   0.04402749   0.77761389   0.08031809
  207 1     1      0.00000      2.70348     16.64130      1.29200   #   C33   0.07784960   0.80306727   0.06292107
  208 1     1      0.00000      2.82103     17.74560     10.21230   #   C34   0.08116798   0.82321005   0.49734532
  209 1     1      0.00000     15.86927     15.41965      8.24319   #   C35   0.42879932   0.71767663   0.40144840
  210 1     1      0.00000     15.86758     15.14810      3.37183   #   C36   0.42876936   0.72277064   0.16421016
  211 1     1      0.00000     15.83787     17.72256      5.75442   #   C37   0.42880440   0.83881798   0.28024368
  212 1     1      0.00000     15.89898     12.84518      5.86060   #   C38   0.42876425   0.60162850   0.28541493
  213 1     6      0.00000      8.59769     15.49528      5.79672   #    S1   0.23473068   0.73052724   0.28230400
  214 1     6      0.00000      1.35644     17.39917      9.46839   #    S2   0.04196196   0.80918288   0.46111635
  215 1     4      0.00000     12.40357     15.24051      5.81105   #    N1   0.33625902   0.71810494   0.28300154
  216 1     4      0.00000      0.60642     15.32733      5.80386   #    N2   0.02130881   0.72234682   0.28265165
  217 1     5      0.00000     16.97935     15.21841      3.86752   #    O1   0.45846631   0.72432428   0.18835053
  218 1     5      0.00000     16.98143     15.37716      7.74516   #    O2   0.45849005   0.71748244   0.37719390
  219 1     5      0.00000     16.95605     17.23679      5.73545   #    O3   0.45849376   0.81530561   0.27932023
  220 1     5      0.00000     17.00472     13.35878      5.87722   #    O4   0.45846258   0.62650112   0.28622416
  221 1     5      0.00000     14.73210     17.20895      5.73780   #    O5   0.39910521   0.81394531   0.27943435
  222 1     5      0.00000     14.75747     15.34934      7.74750   #    O6   0.39910151   0.71612293   0.37730799