ITEM: TIMESTEP
0
ITEM: NUMBER OF ATOMS
600
ITEM: BOX BOUNDS xy xz yz pp pp pp
-2.6733266999999999e-01 3.7453642580000000e+01 -2.6406671999999998e-01
0.0000000000000000e+00 2.2184761729999998e+01 -3.2659500000000001e-03
0.0000000000000000e+00 2.0533617400000001e+01 1.5869244100000000e+00
ITEM: ATOMS id type element x y z q
5 3 H 6.0298 5.31844 8.75594 0
6 3 H 3.61409 5.39702 8.61552 0
7 3 H 3.76913 3.71309 4.65073 0
8 3 H 6.23412 3.61635 4.79603 0
30 1 C 6.3607 4.44363 6.79262 0
31 1 C 5.56987 4.95565 7.84756 0
32 1 C 4.16653 5.00899 7.76695 0
33 1 C 3.47698 4.55978 6.6292 0
34 1 C 2.05007 4.59971 6.65365 0
35 1 C 4.25476 4.07085 5.54997 0
36 1 C 5.6751 4.01668 5.63199 0
66 4 N 1.33411 4.2511 5.73771 0
3 3 H 10.4496 4.10535 9.08124 0
4 3 H 7.94256 4.22724 9.13332 0
25 1 C 11.838 4.1435 6.77726 0
26 1 C 10.4236 4.1862 6.91195 0
27 1 C 9.86193 4.16832 8.17309 0
28 1 C 8.48326 4.24297 8.19747 0
29 1 C 7.87369 4.33288 6.95068 0
63 6 S 9.13457 4.28657 5.62386 0
65 4 N 12.4472 4.142 5.72988 0
1 7 Zn 14.8021 4.10278 5.98799 0
72 5 O 14.8656 4.23836 8.15791 0
21 3 H 15.7241 3.21084 1.06219 0
2 7 Zn 17.6635 4.06255 6.31068 0
9 3 H 16.2323 4.07409 6.15157 0
10 3 H 16.5401 1.05462 3.33222 0
13 3 H 16.2323 4.07409 6.15157 0
18 3 H 15.8297 4.09068 6.11202 0
19 3 H 18.4505 5.98781 2.91532 0
20 3 H 17.0619 6.70517 8.7056 0
49 1 C 17.0078 4.58978 2.12608 0
50 1 C 18.0175 5.57047 2.01638 0
51 1 C 18.4712 6.01202 0.778082 0
52 1 C 16.8021 6.43334 9.71744 0
53 1 C 16.0907 5.23843 9.9463 0
54 1 C 16.4626 3.99973 0.983215 0
59 1 C 15.9922 4.36773 8.79723 0
60 1 C 16.6439 4.19343 3.47622 0
62 1 C 16.2272 1.41991 5.91948 0
67 5 O 17.6516 4.08566 4.2748 0
68 5 O 17.1528 4.07771 8.3072 0
69 5 O 17.3344 6.18756 6.21614 0
70 5 O 17.3604 1.9872 6.19438 0
71 5 O 15.0515 6.17135 5.97122 0
73 5 O 15.3962 4.13225 3.85971 0
74 5 O 15.0709 2.0072 5.95835 0
306 3 H 22.2728 4.63455 3.5097 0
333 1 C 22.1719 4.32356 5.64468 0
334 1 C 20.7428 4.26322 5.6167 0
355 1 C 19.5154 7.06656 0.653523 0
366 4 N 20.03 4.08471 6.58442 0
11 3 H 16.4651 7.07708 3.45924 0
61 1 C 16.1958 6.77105 5.98142 0
164 3 H 18.1196 0.5244 1.5053 0
165 3 H 16.6573 1.3422 9.15759 0
303 3 H 29.0962 6.04308 3.62455 0
304 3 H 26.5873 5.9641 3.59399 0
305 3 H 24.6832 4.81063 3.38944 0
307 3 H 22.5049 4.03034 7.7702 0
308 3 H 24.9691 4.22428 7.65412 0
326 1 C 29.1307 4.84681 5.43539 0
327 1 C 28.5329 5.51824 4.3869 0
328 1 C 27.1515 5.46608 4.3699 0
329 1 C 26.5705 4.73894 5.40414 0
330 1 C 25.0573 4.54913 5.51522 0
331 1 C 24.2428 4.64665 4.36284 0
332 1 C 22.841 4.53861 4.42828 0
335 1 C 22.9724 4.19871 6.80821 0
336 1 C 24.3931 4.30737 6.74151 0
363 6 S 27.8702 4.09146 6.52229 0
301 7 Zn 33.5651 4.31638 6.22129 0
302 7 Zn 36.4332 4.29599 5.96616 0
309 3 H 34.9998 4.31832 6.10528 0
310 3 H 34.3133 1.32248 3.37665 0
313 3 H 34.9998 4.31832 6.10528 0
318 3 H 34.5977 4.3353 6.14525 0
319 3 H 36.1178 6.52571 2.63832 0
320 3 H 37.0097 6.51752 8.93665 0
321 3 H 33.9968 3.09921 1.15286 0
325 1 C 30.5523 4.80317 5.52153 0
338 1 C 34.4652 0.378792 3.88823 0
349 1 C 34.9387 4.83442 2.02926 0
350 1 C 35.7058 5.99308 1.79392 0
351 1 C 35.9957 6.42337 0.50215 0
352 1 C 36.6578 6.20599 9.91287 0
353 1 C 35.6833 5.18895 10.0073 0
354 1 C 34.4895 4.04644 0.97102 0
359 1 C 35.3287 4.54966 8.75246 0
360 1 C 34.8558 4.40529 3.40569 0
362 1 C 34.9574 1.64594 5.89162 0
365 4 N 31.1871 4.26385 6.40243 0
367 5 O 36.0073 4.2999 3.97632 0
368 5 O 36.3531 4.33037 7.99792 0
369 5 O 36.0746 6.44535 5.90703 0
370 5 O 36.1265 2.20255 5.93112 0
371 5 O 33.7846 6.3786 6.12209 0
372 5 O 34.0881 4.44613 8.3576 0
373 5 O 33.7132 4.336 4.03117 0
374 5 O 33.8424 2.2465 6.1578 0
311 3 H 34.1527 7.33473 3.42671 0
361 1 C 34.8943 6.99931 5.88092 0
464 3 H 35.2891 0.956683 1.30843 0
465 3 H 36.9846 1.08688 9.30712 0
494 1 C 34.7522 0.115001 0.892412 0
23 3 H 0.974965 10.3509 1.31345 0
57 1 C 0.582649 9.54783 0.703758 0
64 6 S 1.70047 8.15573 9.39613 0
24 3 H 3.28897 10.1034 9.80762 0
157 3 H 3.63706 14.0096 4.65194 0
158 3 H 6.10206 13.9134 4.79737 0
185 1 C 4.12268 14.3692 5.55046 0
186 1 C 5.54302 14.3153 5.63255 0
216 4 N 1.20202 14.5497 5.73788 0
180 1 C 6.22863 14.7446 6.79231 0
58 1 C 2.53368 9.47759 10.2635 0
166 3 H 14.0389 8.09844 9.62339 0
151 7 Zn 14.67 14.4016 5.9879 0
213 6 S 9.00242 14.585 5.62371 0
215 4 N 12.3151 14.4406 5.7298 0
272 1 C 14.5215 8.96825 10.0505 0
222 5 O 14.7336 14.5372 8.15784 0
153 3 H 10.3177 14.4118 9.08138 0
154 3 H 7.81075 14.5338 9.13341 0
176 1 C 10.2915 14.4876 6.91192 0
177 1 C 9.73001 14.4727 8.17314 0
178 1 C 8.35134 14.5474 8.19747 0
179 1 C 7.74165 14.6343 6.95053 0
175 1 C 11.7059 14.4445 6.77721 0
322 3 H 19.4415 7.94957 2.65967 0
356 1 C 19.8773 7.93944 1.67075 0
357 1 C 20.8493 8.83738 1.29956 0
364 6 S 18.7602 8.81573 8.8671 0
323 3 H 21.245 9.59391 1.96407 0
167 3 H 15.1277 7.49367 1.5954 0
171 3 H 15.592 13.5097 1.06214 0
224 5 O 14.939 12.306 5.95827 0
12 3 H 15.8108 9.34035 7.03745 0
14 3 H 17.9879 10.8232 1.50522 0
15 3 H 16.5249 11.6412 9.15772 0
39 1 C 16.4439 9.20436 3.21698 0
40 1 C 16.4005 8.02828 3.95821 0
41 1 C 16.235 8.05395 5.3388 0
42 1 C 16.0618 9.26102 5.99947 0
43 1 C 16.537 9.13441 1.75405 0
44 1 C 17.4078 10.063 0.997899 0
46 1 C 15.3024 9.79135 9.24527 0
75 2 F 15.564 9.45857 7.97289 0
159 3 H 16.1002 14.373 6.15145 0
160 3 H 16.4084 11.3534 3.33217 0
187 1 C 16.1672 10.4394 5.27336 0
188 1 C 16.3609 10.4222 3.88616 0
198 1 C 15.7905 8.16593 1.06474 0
204 1 C 16.3303 14.2987 0.983121 0
212 1 C 16.0953 11.7188 5.91938 0
220 5 O 17.2285 12.2862 6.19423 0
358 1 C 19.5329 10.2405 9.61808 0
324 3 H 20.1215 10.9586 9.0633 0
223 5 O 15.2641 14.4311 3.85962 0
152 7 Zn 17.5315 14.3616 6.31052 0
163 3 H 16.1002 14.373 6.15145 0
168 3 H 15.6976 14.3896 6.11192 0
209 1 C 15.8602 14.6666 8.79712 0
210 1 C 16.5117 14.4924 3.47609 0
217 5 O 17.5195 14.3847 4.27464 0
218 5 O 17.0208 14.3767 8.30705 0
483 1 C 22.0398 14.6228 5.64453 0
484 1 C 20.6107 14.5624 5.61653 0
516 4 N 19.8979 14.3838 6.58423 0
120 1 C 15.9581 10.979 9.79865 0
485 1 C 22.8403 14.4978 6.80805 0
486 1 C 24.2609 14.6065 6.74138 0
457 3 H 22.3728 14.3294 7.77003 0
458 3 H 24.837 14.5233 7.654 0
513 6 S 27.7381 14.3905 6.52208 0
22 3 H 36.9876 8.49065 2.24873 0
55 1 C 36.8524 7.6173 0.238754 0
56 1 C 37.2562 8.53217 1.20358 0
312 3 H 35.2049 9.52382 6.94166 0
314 3 H 35.1568 11.2556 1.30854 0
315 3 H 36.8529 11.3857 9.307 0
339 1 C 34.1487 9.47427 3.20957 0
340 1 C 34.3233 8.28082 3.91314 0
341 1 C 34.7467 8.28552 5.24403 0
342 1 C 34.9497 9.48544 5.90712 0
343 1 C 33.8967 9.45131 1.7558 0
344 1 C 34.62 10.4139 0.892474 0
346 1 C 35.4293 9.67668 9.22317 0
375 2 F 35.4004 9.57694 7.8907 0
459 3 H 34.8676 14.6172 6.1052 0
460 3 H 34.1809 11.6213 3.37669 0
466 3 H 34.0016 8.09481 9.44421 0
467 3 H 32.6374 7.68378 1.76459 0
471 3 H 33.8648 13.3981 1.15277 0
487 1 C 34.714 10.6736 5.23424 0
488 1 C 34.3329 10.6777 3.88827 0
498 1 C 33.1804 8.39747 1.15851 0
504 1 C 34.3575 14.3453 0.970934 0
512 1 C 34.8252 11.9448 5.89163 0
520 5 O 35.9942 12.5014 5.93117 0
524 5 O 33.7102 12.5455 6.15773 0
451 7 Zn 33.433 14.6154 6.22116 0
452 7 Zn 36.3011 14.5948 5.96616 0
463 3 H 34.8676 14.6172 6.10521 0
468 3 H 34.4656 14.6342 6.14515 0
510 1 C 34.7237 14.7042 3.40561 0
517 5 O 35.8752 14.5987 3.97627 0
518 5 O 36.2209 14.6293 7.99793 0
523 5 O 33.5812 14.6349 4.03106 0
420 1 C 36.2201 10.7252 9.88522 0
572 1 C 34.598 8.84125 9.95416 0
515 4 N 31.055 14.5629 6.40222 0
522 5 O 33.9559 14.7451 8.35747 0
155 3 H 5.89767 15.6233 8.75391 0
156 3 H 3.48198 15.7014 8.6134 0
181 1 C 5.43778 15.2587 7.84627 0
182 1 C 4.03443 15.3117 7.76558 0
173 3 H 0.843135 20.6496 1.31338 0
174 3 H 3.15566 20.4034 9.80718 0
183 1 C 3.34488 14.8602 6.62874 0
184 1 C 1.91797 14.9001 6.65314 0
207 1 C 0.450749 19.8466 0.703687 0
214 6 S 1.56732 18.4556 9.39574 0
208 1 C 2.40057 19.7774 10.2631 0
16 3 H 13.9069 18.3975 9.6235 0
122 1 C 14.3896 19.2673 10.0506 0
474 3 H 19.9897 21.2573 9.06302 0
456 3 H 22.1407 14.934 3.50958 0
17 3 H 14.9951 17.7929 1.59525 0
37 1 C 16.0349 20.7384 5.27339 0
38 1 C 16.2285 20.7213 3.88617 0
48 1 C 15.658 18.4651 1.06465 0
221 5 O 14.9193 16.4702 5.97109 0
161 3 H 16.3326 17.3761 3.45908 0
162 3 H 15.6786 19.6392 7.03743 0
169 3 H 18.318 16.287 2.91513 0
170 3 H 16.9299 17.0041 8.70548 0
189 1 C 16.3114 19.5034 3.21693 0
190 1 C 16.268 18.3273 3.9581 0
191 1 C 16.1026 18.3529 5.3387 0
192 1 C 15.9296 19.5599 5.99944 0
193 1 C 16.4045 19.4335 1.75401 0
194 1 C 17.2754 20.3621 0.997937 0
196 1 C 15.1705 20.0903 9.24528 0
199 1 C 16.8756 14.8888 2.12596 0
200 1 C 17.8851 15.8696 2.0162 0
201 1 C 18.3387 16.3112 0.777878 0
202 1 C 16.6701 16.7322 9.71732 0
203 1 C 15.9587 15.5373 9.94619 0
211 1 C 16.0635 17.07 5.98129 0
219 5 O 17.2022 16.4866 6.21601 0
225 2 F 15.4319 19.7575 7.97289 0
472 3 H 19.3095 18.2484 2.65966 0
473 3 H 21.1126 19.8931 1.96387 0
505 1 C 19.3828 17.3659 0.653254 0
506 1 C 19.745 18.2386 1.67058 0
507 1 C 20.7167 19.1367 1.2993 0
508 1 C 19.4011 20.5392 9.61784 0
514 6 S 18.6283 19.1145 8.86689 0
270 1 C 15.8264 21.2778 9.79858 0
453 3 H 28.9641 16.3428 3.62479 0
454 3 H 26.4552 16.2639 3.59423 0
455 3 H 24.5511 15.1101 3.38938 0
476 1 C 28.9985 15.1461 5.43534 0
477 1 C 28.4008 15.8178 4.38702 0
478 1 C 27.0194 15.7657 4.37002 0
479 1 C 26.4384 15.0383 5.4041 0
480 1 C 24.9252 14.8484 5.51513 0
481 1 C 24.1107 14.946 4.36275 0
482 1 C 22.7089 14.838 4.42816 0
337 1 C 34.5822 20.9725 5.23421 0
475 1 C 30.4202 15.1025 5.52146 0
206 1 C 37.1242 18.831 1.2035 0
316 3 H 33.8691 18.394 9.4441 0
317 3 H 32.5053 17.9829 1.7647 0
348 1 C 33.0483 18.6965 1.15858 0
172 3 H 36.8556 18.7895 2.24866 0
205 1 C 36.7204 17.9162 0.238672 0
461 3 H 34.0208 17.6337 3.42665 0
462 3 H 35.0729 19.8228 6.94166 0
469 3 H 35.9858 16.8245 2.63824 0
470 3 H 36.8771 16.8168 8.93648 0
489 1 C 34.0169 19.7732 3.20954 0
490 1 C 34.1914 18.5798 3.91309 0
491 1 C 34.6148 18.5845 5.24398 0
492 1 C 34.8178 19.7844 5.90709 0
493 1 C 33.7648 19.7503 1.75579 0
496 1 C 35.2969 19.9757 9.22318 0
499 1 C 34.8067 15.1333 2.02918 0
500 1 C 35.5738 16.2919 1.79384 0
501 1 C 35.8637 16.7222 0.502069 0
502 1 C 36.5253 16.5052 9.91272 0
503 1 C 35.5509 15.488 10.0072 0
509 1 C 35.1965 14.8486 8.7524 0
511 1 C 34.7623 17.2982 5.88086 0
519 5 O 35.9425 16.7442 5.907 0
521 5 O 33.6526 16.6776 6.12196 0
525 2 F 35.2683 19.8759 7.89072 0
422 1 C 34.4654 19.1404 9.95409 0
570 1 C 36.0876 21.0242 9.88528 0
80 3 H 5.95473 5.60226 13.6558 0
81 3 H 3.54433 5.4263 13.7761 0
83 3 H 6.24051 5.01848 17.9209 0
105 1 C 6.32877 5.34204 15.7818 0
106 1 C 5.51433 5.43888 14.6293 0
107 1 C 4.11252 5.3309 14.6948 0
108 1 C 3.44335 5.11659 15.9113 0
109 1 C 2.01426 5.05626 15.8833 0
110 1 C 4.24391 4.99242 17.0749 0
111 1 C 5.66452 5.10103 17.0082 0
141 4 N 1.30143 4.8783 16.8511 0
82 3 H 3.77633 4.82464 18.037 0
78 3 H 10.3678 6.83473 13.8903 0
79 3 H 7.8589 6.75573 13.8596 0
100 1 C 11.8238 5.5961 15.7881 0
101 1 C 10.4022 5.63966 15.7019 0
102 1 C 9.80444 6.31039 14.6529 0
103 1 C 8.42309 6.25823 14.6359 0
104 1 C 7.84197 5.53177 15.6706 0
138 6 S 9.1417 4.88502 16.7892 0
140 4 N 12.4586 5.05736 16.6694 0
76 7 Zn 14.8366 5.10993 16.4882 0
96 3 H 15.2683 3.8927 11.4197 0
77 7 Zn 17.7047 5.08964 16.2329 0
84 3 H 16.2712 5.11191 16.3721 0
85 3 H 15.5849 2.11605 13.6434 0
88 3 H 16.2712 5.11191 16.3721 0
93 3 H 15.8692 5.12889 16.4121 0
94 3 H 17.389 7.31937 12.9051 0
95 3 H 18.2813 7.31108 19.2036 0
113 1 C 15.7368 1.17237 14.155 0
124 1 C 16.2101 5.62801 12.2961 0
125 1 C 16.9771 6.78668 12.0607 0
126 1 C 17.2671 7.21691 10.7689 0
127 1 C 17.9294 6.99949 20.1798 0
128 1 C 16.9549 5.98245 20.2742 0
129 1 C 15.761 4.83995 11.2379 0
134 1 C 16.6003 5.34323 19.0193 0
135 1 C 16.1272 5.19891 13.6725 0
137 1 C 16.229 2.43954 16.1584 0
142 5 O 17.2787 5.09355 14.2431 0
143 5 O 17.6247 5.12401 18.2647 0
145 5 O 17.398 2.99619 16.1979 0
147 5 O 15.3597 5.23967 18.6245 0
148 5 O 14.9846 5.12959 14.298 0
149 5 O 15.114 3.04006 16.4246 0
408 1 C 22.2021 5.35225 16.8963 0
409 1 C 20.7752 5.39223 16.9208 0
441 4 N 20.0592 5.04488 16.0043 0
144 5 O 17.3459 7.23898 16.1738 0
146 5 O 15.056 7.17217 16.389 0
239 3 H 16.5607 1.75021 11.5752 0
240 3 H 18.2563 1.88045 19.574 0
269 1 C 16.0238 0.908519 11.1592 0
381 3 H 22.3392 6.18681 18.8837 0
378 3 H 29.1745 4.89422 19.3479 0
379 3 H 26.6675 5.016 19.4001 0
383 3 H 24.9592 4.41116 15.0619 0
401 1 C 29.1486 4.97812 17.1787 0
402 1 C 28.5869 4.95845 18.4398 0
403 1 C 27.2083 5.03304 18.4643 0
404 1 C 26.5988 5.12472 17.2176 0
405 1 C 25.0858 5.23574 17.0596 0
406 1 C 24.295 5.74637 18.1152 0
407 1 C 22.8916 5.79989 18.0346 0
410 1 C 22.9799 4.86474 15.8164 0
411 1 C 24.4002 4.81039 15.8984 0
438 6 S 27.8597 5.08027 15.8907 0
382 3 H 22.4942 4.50821 14.9167 0
380 3 H 24.7549 6.10791 19.0241 0
376 7 Zn 33.5272 4.89636 16.2548 0
377 7 Zn 36.3887 4.85611 16.5774 0
384 3 H 34.9574 4.86765 16.4183 0
385 3 H 35.2651 1.84816 13.599 0
388 3 H 34.9574 4.86765 16.4183 0
393 3 H 34.5548 4.88424 16.3788 0
394 3 H 37.1755 6.78139 13.182 0
396 3 H 34.4492 4.00433 11.329 0
400 1 C 30.563 4.93569 17.044 0
424 1 C 35.7329 5.38333 12.3928 0
425 1 C 36.7426 6.36401 12.2831 0
426 1 C 37.1963 6.80551 11.0448 0
427 1 C 35.5274 7.2268 19.9843 0
428 1 C 34.8159 6.0319 20.2131 0
429 1 C 35.1877 4.79321 11.25 0
434 1 C 34.7174 5.16126 19.064 0
435 1 C 35.369 4.98701 13.743 0
437 1 C 34.9523 2.21348 16.1862 0
440 4 N 31.1723 4.93565 15.9967 0
442 5 O 36.3767 4.87925 14.5415 0
443 5 O 35.878 4.87124 18.5739 0
445 5 O 36.0855 2.78075 16.4611 0
447 5 O 33.5908 5.03193 18.4247 0
448 5 O 34.1213 4.92584 14.1265 0
449 5 O 33.796 2.80079 16.2251 0
444 5 O 36.0595 6.98112 16.4829 0
446 5 O 33.7766 6.96493 16.238 0
539 3 H 36.8446 1.31785 11.772 0
540 3 H 35.3824 2.13568 19.4244 0
97 3 H 0.713217 8.74297 12.9264 0
98 3 H 2.51667 10.3873 12.2307 0
130 1 C 0.786854 7.86003 10.9202 0
131 1 C 1.14889 8.73287 11.9374 0
132 1 C 2.12084 9.6308 11.5662 0
99 3 H 1.39314 11.7521 19.3302 0
133 1 C 0.804543 11.0339 19.885 0
139 6 S 0.0318591 9.60921 19.134 0
242 3 H 13.9087 8.4773 12.0314 0
273 1 C 14.4517 9.19097 11.4254 0
433 1 C 21.259 10.2711 20.5305 0
45 1 C 17.4915 11.5187 20.1521 0
197 1 C 15.8695 9.63469 20.221 0
397 3 H 18.2588 9.28431 12.5154 0
430 1 C 18.1238 8.41084 10.5055 0
431 1 C 18.5275 9.32576 11.4703 0
432 1 C 19.3076 10.3414 10.9704 0
398 3 H 19.6999 11.1445 11.5801 0
299 5 O 14.9816 13.3391 16.4245 0
86 3 H 15.424 8.12829 13.6936 0
87 3 H 16.4763 10.3174 17.2085 0
89 3 H 16.4281 12.0492 11.5753 0
90 3 H 18.1243 12.1793 19.5739 0
114 1 C 15.42 10.2678 13.4764 0
115 1 C 15.5946 9.07439 14.18 0
116 1 C 16.018 9.07911 15.5109 0
117 1 C 16.2211 10.279 16.1739 0
118 1 C 15.168 10.2448 12.0226 0
119 1 C 15.8914 11.2074 11.1593 0
121 1 C 16.7008 10.4702 19.49 0
136 1 C 16.1657 7.79291 16.1478 0
150 2 F 16.6718 10.3705 18.1575 0
235 3 H 15.4523 12.4149 13.6435 0
241 3 H 15.2732 8.88824 19.7111 0
262 1 C 15.9853 11.4672 15.501 0
263 1 C 15.6043 11.4712 14.1551 0
287 1 C 16.0966 12.7385 16.1584 0
295 5 O 17.2657 13.295 16.1979 0
439 6 S 20.4259 8.94912 19.6632 0
399 3 H 22.0143 10.8968 20.0747 0
246 3 H 15.1363 14.1917 11.4196 0
533 3 H 24.8272 14.7071 15.064 0
345 1 C 34.6835 11.7724 20.0654 0
497 1 C 33.2469 9.76174 20.3173 0
395 3 H 35.7871 7.49868 18.9724 0
386 3 H 35.1902 7.87062 13.726 0
387 3 H 34.536 10.1339 17.3042 0
389 3 H 36.7132 11.6166 11.772 0
390 3 H 35.2502 12.4347 19.4245 0
414 1 C 35.169 9.9979 13.4837 0
415 1 C 35.1256 8.82183 14.225 0
416 1 C 34.9601 8.84752 15.6055 0
417 1 C 34.787 10.0546 16.2662 0
418 1 C 35.2622 9.92793 12.0208 0
419 1 C 36.133 10.8565 11.2646 0
421 1 C 34.0277 10.5849 19.512 0
436 1 C 34.9209 7.56462 16.2482 0
450 2 F 34.2892 10.2521 18.2396 0
535 3 H 35.1336 12.147 13.5989 0
541 3 H 32.7643 8.89195 19.8901 0
542 3 H 33.8528 8.28726 11.8622 0
562 1 C 34.8924 11.233 15.5401 0
563 1 C 35.0861 11.2158 14.1529 0
573 1 C 34.5156 8.95947 11.3315 0
587 1 C 34.8205 12.5124 16.1861 0
595 5 O 35.9537 13.0798 16.4609 0
599 5 O 33.6641 13.0996 16.225 0
546 3 H 34.3171 14.3032 11.3289 0
249 3 H 1.26126 22.0508 19.3302 0
230 3 H 5.8227 15.9011 13.6556 0
231 3 H 3.41229 15.7251 13.7759 0
256 1 C 5.38226 15.7379 14.6291 0
257 1 C 3.98046 15.6299 14.6946 0
255 1 C 6.19668 15.6412 15.7816 0
258 1 C 3.31127 15.4157 15.9111 0
259 1 C 1.88218 15.3554 15.8831 0
232 3 H 3.64422 15.1241 18.0369 0
233 3 H 6.10839 15.318 17.9207 0
247 3 H 0.580888 19.0421 12.9263 0
248 3 H 2.38393 20.6868 12.2305 0
260 1 C 4.11181 15.2918 17.0747 0
261 1 C 5.53242 15.4004 17.008 0
280 1 C 0.654126 18.1595 10.92 0
281 1 C 1.01631 19.0322 11.9373 0
282 1 C 1.98803 19.9304 11.566 0
283 1 C 0.672617 21.3327 19.8849 0
289 6 S -0.100187 19.9081 19.1339 0
291 4 N 1.16934 15.1776 16.8509 0
228 3 H 10.2356 17.1341 13.8901 0
229 3 H 7.72671 17.0551 13.8595 0
252 1 C 9.6723 16.6097 14.6528 0
253 1 C 8.29094 16.5576 14.6358 0
250 1 C 11.6917 15.8954 15.7879 0
251 1 C 10.27 15.939 15.7017 0
254 1 C 7.70986 15.831 15.6704 0
92 3 H 13.7769 18.7765 12.0316 0
123 1 C 14.3199 19.49 11.4254 0
226 7 Zn 14.7045 15.409 16.488 0
288 6 S 9.00962 15.1843 16.789 0
290 4 N 12.3265 15.3566 16.6691 0
583 1 C 21.126 20.5708 20.5301 0
532 3 H 22.3622 14.8034 14.9186 0
112 1 C 15.8538 21.7661 15.501 0
548 3 H 19.5684 21.4431 11.5799 0
47 1 C 15.7372 19.9338 20.2209 0
195 1 C 17.3593 21.8177 20.1521 0
91 3 H 15.1409 19.1874 19.7109 0
531 3 H 22.2071 16.4943 18.8805 0
296 5 O 14.9242 17.4712 16.3888 0
297 5 O 15.2274 15.5387 18.6243 0
298 5 O 14.8526 15.4286 14.2979 0
227 7 Zn 17.5726 15.3884 16.233 0
234 3 H 16.1391 15.4108 16.372 0
236 3 H 15.2924 18.4273 13.6935 0
237 3 H 16.3445 20.6164 17.2085 0
238 3 H 16.1391 15.4108 16.372 0
243 3 H 15.7371 15.4278 16.412 0
244 3 H 17.2573 17.6182 12.905 0
245 3 H 18.1488 17.6102 19.2034 0
264 1 C 15.2885 20.5668 13.4764 0
265 1 C 15.463 19.3734 14.1799 0
266 1 C 15.8864 19.3781 15.5108 0
267 1 C 16.0894 20.578 16.1739 0
268 1 C 15.0364 20.5438 12.0226 0
271 1 C 16.5686 20.7693 19.49 0
274 1 C 16.0782 15.9269 12.296 0
275 1 C 16.8453 17.0855 12.0606 0
276 1 C 17.1352 17.5158 10.7688 0
277 1 C 17.797 17.2986 20.1796 0
278 1 C 16.8225 16.2815 20.2741 0
279 1 C 15.629 15.1389 11.2378 0
284 1 C 16.468 15.6421 19.0192 0
285 1 C 15.9952 15.4978 13.6724 0
286 1 C 16.0339 18.0918 16.1477 0
292 5 O 17.1467 15.3924 14.2431 0
293 5 O 17.4924 15.4228 18.2647 0
294 5 O 17.2141 17.5378 16.1739 0
300 2 F 16.5399 20.6695 18.1575 0
547 3 H 18.1273 19.583 12.5153 0
558 1 C 22.07 15.6536 16.8956 0
559 1 C 20.6431 15.6935 16.92 0
580 1 C 17.992 18.7096 10.5053 0
581 1 C 18.3959 19.6245 11.4701 0
582 1 C 19.176 20.6401 10.9702 0
589 6 S 20.2927 19.249 19.6627 0
591 4 N 19.9271 15.3433 16.0047 0
549 3 H 21.881 21.1967 20.0741 0
528 3 H 29.0428 15.2043 19.3482 0
529 3 H 26.5358 15.3263 19.4002 0
530 3 H 24.6228 16.4161 19.021 0
552 1 C 28.4551 15.2654 18.44 0
553 1 C 27.0764 15.3401 18.4643 0
556 1 C 24.1629 16.0517 18.1132 0
557 1 C 22.7596 16.1048 18.0326 0
551 1 C 29.0166 15.2808 17.1788 0
554 1 C 26.4667 15.4275 17.2174 0
555 1 C 24.9537 15.5379 17.0592 0
560 1 C 22.8478 15.1628 15.8172 0
561 1 C 24.2681 15.1089 15.8993 0
588 6 S 27.7275 15.3786 15.8906 0
347 1 C 33.1148 20.0607 20.3174 0
495 1 C 34.5515 22.0713 20.0654 0
391 3 H 32.632 19.191 19.8902 0
392 3 H 33.72 18.5865 11.862 0
412 1 C 34.7599 21.5319 15.5401 0
413 1 C 34.9535 21.5148 14.1529 0
423 1 C 34.3829 19.2587 11.3314 0
526 7 Zn 33.3951 15.1951 16.2547 0
527 7 Zn 36.2566 15.1552 16.5773 0
534 3 H 34.8253 15.1666 16.4182 0
536 3 H 35.0575 18.1697 13.7258 0
537 3 H 34.4037 20.4328 17.3042 0
538 3 H 34.8253 15.1666 16.4182 0
543 3 H 34.4227 15.1832 16.3787 0
544 3 H 37.043 17.0807 13.1819 0
545 3 H 35.655 17.7976 18.9723 0
550 1 C 30.431 15.2377 17.044 0
564 1 C 35.0363 20.297 13.4837 0
565 1 C 34.9929 19.1208 14.2249 0
566 1 C 34.8276 19.1465 15.6055 0
567 1 C 34.6546 20.3535 16.2662 0
568 1 C 35.1294 20.2271 12.0208 0
569 1 C 36.0004 21.1556 11.2647 0
571 1 C 33.8956 20.8838 19.5121 0
574 1 C 35.6006 15.6824 12.3927 0
575 1 C 36.6101 16.6633 12.2829 0
576 1 C 37.0638 17.1048 11.0446 0
577 1 C 35.3953 17.5257 19.9842 0
578 1 C 34.6839 16.3308 20.213 0
579 1 C 35.0554 15.0922 11.2499 0
584 1 C 34.5854 15.4602 19.0639 0
585 1 C 35.2368 15.286 13.7429 0
586 1 C 34.7885 17.8635 16.2481 0
590 4 N 31.0402 15.2341 15.9966 0
592 5 O 36.2446 15.1784 14.5414 0
593 5 O 35.7459 15.1702 18.5738 0
594 5 O 35.9272 17.2802 16.4828 0
596 5 O 33.6443 17.2637 16.2379 0
597 5 O 33.4587 15.3307 18.4246 0
598 5 O 33.9891 15.2247 14.1264 0
600 2 F 34.157 20.551 18.2397 0
ITEM: TIMESTEP
2500
ITEM: NUMBER OF ATOMS
600
ITEM: BOX BOUNDS xy xz yz pp pp pp
1.2811880655938843e+00 3.6789500570524659e+01 3.4541550813520455e-01
-2.5887378987891729e-01 2.1663940531351145e+01 2.7163054798324615e-01
-2.7273997950563178e-01 2.0806357379505538e+01 8.0722942147220644e-01
ITEM: ATOMS id type element x y z q
5 3 H 6.584 6.64139 7.82937 0
6 3 H 4.2388 6.2923 7.44816 0
7 3 H 4.96718 2.12858 6.58173 0
8 3 H 7.36328 2.46651 6.98975 0
30 1 C 7.19109 4.57975 7.45621 0
31 1 C 6.26817 5.63875 7.58592 0
32 1 C 4.90738 5.44443 7.35811 0
33 1 C 4.41607 4.19398 6.98525 0
34 1 C 3.04564 4.09426 6.73701 0
35 1 C 5.31732 3.11371 6.8661 0
36 1 C 6.69148 3.3071 7.10523 0
66 4 N 2.53956 3.10491 6.28072 0
4 3 H 8.62416 6.81923 8.53606 0
28 1 C 9.19761 6.0231 8.08538 0
29 1 C 8.66324 4.83435 7.59499 0
63 6 S 9.94361 3.74491 6.92826 0
319 3 H 1.58267 4.92967 3.01127 0
351 1 C 1.7688 5.11284 0.910825 0
23 3 H 5.61178 7.22871 2.50867 0
57 1 C 5.02813 6.65377 1.8021 0
24 3 H 3.70396 9.61995 8.88189 0
22 3 H 3.1502 6.6507 2.87079 0
55 1 C 3.16522 5.60311 0.954288 0
56 1 C 3.70359 6.33872 1.99484 0
133 1 C 5.53724 6.16761 0.61856 0
58 1 C 2.97148 9.07071 9.45737 0
99 3 H 6.56171 6.326 0.309662 0
3 3 H 11.1042 7.03864 8.18264 0
25 1 C 12.4757 5.05181 6.97299 0
26 1 C 11.1174 5.07447 7.26117 0
27 1 C 10.5504 6.15502 7.8886 0
65 4 N 12.9853 4.11064 6.43472 0
1 7 Zn 15.1569 4.33925 6.17573 0
72 5 O 15.726 4.41756 8.37449 0
21 3 H 15.5293 2.86205 0.971102 0
2 7 Zn 17.9096 4.40427 5.81695 0
9 3 H 16.5313 4.39432 5.9929 0
10 3 H 16.1294 1.32933 3.33507 0
13 3 H 16.5313 4.39432 5.99291 0
18 3 H 16.0992 4.41503 6.0697 0
19 3 H 17.6144 6.39252 2.29923 0
49 1 C 16.4538 4.65789 1.78868 0
50 1 C 17.2354 5.78991 1.48679 0
51 1 C 17.6046 6.09654 0.18279 0
52 1 C 18.7344 5.30564 10.2316 0
53 1 C 17.4426 4.74256 10.1237 0
54 1 C 16.0473 3.78666 0.749865 0
59 1 C 16.9787 4.4989 8.72744 0
60 1 C 16.3585 4.36657 3.22921 0
62 1 C 16.5068 1.65106 5.8741 0
67 5 O 17.5047 4.34938 3.81114 0
68 5 O 17.9287 4.44194 7.86008 0
69 5 O 17.5124 6.56257 5.76894 0
70 5 O 17.6616 2.23972 5.80787 0
71 5 O 15.2524 6.51825 6.07299 0
73 5 O 15.2314 4.32186 3.89089 0
74 5 O 15.4163 2.27442 6.14741 0
61 1 C 16.3547 7.14831 5.80311 0
164 3 H 17.4622 0.593414 1.22006 0
165 3 H 17.9164 0.655824 9.65705 0
11 3 H 15.897 7.63199 3.289 0
166 3 H 15.6757 7.59413 9.47459 0
272 1 C 16.2018 8.3459 10.0491 0
167 3 H 14.2034 8.46437 1.65998 0
12 3 H 16.681 9.5755 7.03399 0
39 1 C 16.0661 9.76889 3.14258 0
40 1 C 16.0519 8.55316 3.83611 0
41 1 C 16.2777 8.49257 5.21967 0
42 1 C 16.5134 9.66849 5.95183 0
43 1 C 15.9226 9.77276 1.66238 0
44 1 C 16.9327 10.4399 0.802356 0
46 1 C 16.8822 9.36852 9.37918 0
75 2 F 16.8159 9.47108 8.01826 0
188 1 C 16.2938 10.9384 3.86214 0
198 1 C 14.9648 8.94342 1.05658 0
120 1 C 17.5685 10.409 10.1617 0
322 3 H 18.7454 8.19595 1.80817 0
356 1 C 19.0543 8.1109 0.776488 0
37 1 C 16.3422 0.343334 5.25422 0
38 1 C 16.1214 0.380895 3.86228 0
20 3 H 19.2891 5.58239 9.34421 0
306 3 H 21.8363 3.71292 2.23722 0
333 1 C 21.9844 4.42933 4.27361 0
334 1 C 20.6041 4.33232 4.50735 0
366 4 N 20.128 4.52396 5.59911 0
304 3 H 26.5154 3.64082 1.6223 0
305 3 H 24.2504 3.69171 1.83404 0
307 3 H 22.5162 5.19854 6.23402 0
308 3 H 24.8844 5.22025 5.83538 0
328 1 C 26.96 3.80016 2.59475 0
329 1 C 26.2654 4.24493 3.714 0
330 1 C 24.7858 4.43393 3.81011 0
331 1 C 23.89 4.04984 2.78842 0
332 1 C 22.5023 4.05253 3.02215 0
335 1 C 22.875 4.8794 5.26257 0
336 1 C 24.2476 4.89503 5.02513 0
363 6 S 27.315 4.34091 5.18033 0
357 1 C 20.0055 8.94256 0.236283 0
364 6 S 21.9336 5.64934 10.1861 0
323 3 H 20.4981 9.72636 0.796094 0
303 3 H 28.9799 3.197 2.07818 0
326 1 C 28.6685 3.77817 4.15173 0
327 1 C 28.2952 3.54295 2.84295 0
301 7 Zn 32.5023 3.65913 5.95664 0
302 7 Zn 35.2494 3.33825 6.12677 0
309 3 H 33.8747 3.50195 6.06019 0
310 3 H 33.666 0.374043 3.38195 0
313 3 H 33.8747 3.50195 6.06019 0
318 3 H 33.4408 3.58604 6.04581 0
320 3 H 35.0225 5.88686 8.68458 0
321 3 H 33.0812 3.51334 0.714298 0
325 1 C 29.9864 3.64862 4.58726 0
349 1 C 34.6849 4.19226 2.01945 0
350 1 C 35.9717 4.77955 2.06273 0
352 1 C 34.7376 5.67185 9.7058 0
353 1 C 33.9962 4.51165 9.96555 0
354 1 C 34.0521 3.9886 0.76826 0
359 1 C 33.8191 3.68105 8.76966 0
360 1 C 34.1981 3.72181 3.33702 0
362 1 C 33.672 0.763379 5.90394 0
365 4 N 30.3078 3.87039 5.72877 0
367 5 O 35.1501 3.31118 4.09863 0
368 5 O 34.9346 3.40985 8.17574 0
369 5 O 35.1068 5.53848 5.96066 0
370 5 O 34.836 1.2678 6.13669 0
371 5 O 32.8403 5.73308 6.07065 0
372 5 O 32.6627 3.63142 8.1709 0
373 5 O 32.9765 3.86429 3.76565 0
374 5 O 32.5869 1.47376 5.84765 0
311 3 H 34.2072 6.67793 3.37097 0
361 1 C 34.0133 6.24561 5.91715 0
464 3 H 35.1844 0.162488 1.58322 0
465 3 H 35.1832 0.380561 9.35848 0
64 6 S 1.99522 7.74087 8.77768 0
312 3 H 33.8526 8.89881 7.15283 0
339 1 C 34.0368 8.80838 3.1976 0
340 1 C 34.111 7.60773 3.9152 0
341 1 C 34.0491 7.58397 5.32724 0
342 1 C 33.9171 8.79532 6.05377 0
343 1 C 34.1176 8.85155 1.70453 0
344 1 C 34.8438 9.95395 1.01579 0
346 1 C 33.6632 9.48677 9.43815 0
375 2 F 33.7843 9.05708 8.14254 0
466 3 H 31.9108 8.31274 9.82607 0
467 3 H 32.919 7.08129 1.38011 0
487 1 C 33.8401 9.99227 5.31474 0
488 1 C 33.8899 9.98907 3.91645 0
498 1 C 33.4749 7.88399 0.912162 0
420 1 C 34.5998 10.4908 9.99175 0
572 1 C 32.6253 9.01169 10.241 0
130 1 C 36.1453 7.5867 10.4083 0
213 6 S 10.1156 14.3004 6.9275 0
157 3 H 5.13939 12.6836 6.57857 0
158 3 H 7.53556 13.0216 6.98637 0
185 1 C 5.48932 13.6683 6.8648 0
186 1 C 6.86352 13.8617 7.10377 0
216 4 N 2.71136 13.6602 6.2797 0
180 1 C 7.36286 15.1339 7.45694 0
154 3 H 8.79561 17.3726 8.53876 0
178 1 C 9.36915 16.5771 8.08715 0
179 1 C 8.835 15.3888 7.59552 0
155 3 H 6.7551 17.1946 7.83442 0
156 3 H 4.41004 16.8454 7.45343 0
181 1 C 6.4396 16.1923 7.58914 0
182 1 C 5.07882 15.9979 7.36154 0
173 3 H 5.78388 17.7841 2.51033 0
174 3 H 3.87845 20.1775 8.88233 0
183 1 C 4.5878 14.7481 6.98636 0
184 1 C 3.21738 14.6486 6.73807 0
207 1 C 5.2004 17.2096 1.80326 0
206 1 C 3.87595 16.8941 1.99567 0
172 3 H 3.32251 17.2054 2.87185 0
205 1 C 3.33771 16.1592 0.954545 0
283 1 C 5.70967 16.7245 0.619348 0
469 3 H 1.75466 15.486 3.01123 0
501 1 C 1.9412 15.6691 0.910792 0
208 1 C 3.14567 19.6284 9.45756 0
249 3 H 6.73411 16.8834 0.310628 0
171 3 H 15.7019 13.4208 0.97069 0
224 5 O 15.5886 12.8322 6.14662 0
14 3 H 17.6343 11.1511 1.22028 0
15 3 H 18.0872 11.2145 9.65773 0
160 3 H 16.3017 11.8868 3.33489 0
187 1 C 16.5148 10.901 5.25402 0
204 1 C 16.2203 14.3453 0.749571 0
212 1 C 16.6792 12.2088 5.87365 0
220 5 O 17.834 12.7975 5.80754 0
152 7 Zn 18.0817 14.962 5.81698 0
210 1 C 16.5309 14.9251 3.22902 0
217 5 O 17.677 14.9076 3.81121 0
151 7 Zn 15.3291 14.8971 6.17535 0
215 4 N 13.1575 14.6679 6.4341 0
222 5 O 15.8979 14.9751 8.37406 0
153 3 H 11.2755 17.593 8.1856 0
176 1 C 11.2892 15.6299 7.26192 0
177 1 C 10.7219 16.7096 7.89056 0
175 1 C 12.6475 15.6081 6.97373 0
159 3 H 16.7034 14.9522 5.99275 0
223 5 O 15.4036 14.8803 3.89047 0
163 3 H 16.7034 14.9522 5.99275 0
168 3 H 16.2713 14.973 6.0694 0
209 1 C 17.1505 15.0564 8.72717 0
218 5 O 18.1006 14.9994 7.85996 0
16 3 H 15.8481 18.1525 9.47529 0
122 1 C 16.375 18.9039 10.0495 0
17 3 H 14.3768 19.0221 1.65987 0
48 1 C 15.1382 19.5012 1.05646 0
221 5 O 15.4247 17.0763 6.0731 0
161 3 H 16.07 18.19 3.28903 0
162 3 H 16.8536 20.1334 7.03412 0
169 3 H 17.7874 16.9509 2.29924 0
189 1 C 16.2392 20.3269 3.14259 0
190 1 C 16.2248 19.1112 3.83616 0
191 1 C 16.4504 19.0506 5.21979 0
192 1 C 16.686 20.2264 5.95197 0
193 1 C 16.0959 20.3307 1.66227 0
194 1 C 16.7606 -0.1178 0.802169 0
196 1 C 17.0555 19.9262 9.37921 0
199 1 C 16.6267 15.2164 1.78848 0
200 1 C 17.4086 16.3483 1.48673 0
201 1 C 17.7784 16.6547 0.182794 0
203 1 C 17.6142 15.3 10.1235 0
211 1 C 16.5271 17.7063 5.80333 0
219 5 O 17.6847 17.1204 5.76932 0
225 2 F 16.9885 20.0288 8.01835 0
270 1 C 17.743 20.9662 10.1613 0
472 3 H 18.9188 18.7541 1.80845 0
506 1 C 19.2279 18.6692 0.776785 0
516 4 N 20.3003 15.0818 5.59907 0
485 1 C 23.0471 15.4392 5.26194 0
486 1 C 24.4197 15.4554 5.02443 0
457 3 H 22.6882 15.7589 6.23316 0
458 3 H 25.0564 15.7816 5.83439 0
170 3 H 19.4609 16.1398 9.34432 0
202 1 C 18.906 15.863 10.2316 0
483 1 C 22.1566 14.9879 4.2734 0
484 1 C 20.7764 14.8902 4.50728 0
513 6 S 27.4872 14.9013 5.18027 0
456 3 H 22.0088 14.27 2.23751 0
473 3 H 20.6714 20.2848 0.796656 0
507 1 C 20.179 19.501 0.236733 0
514 6 S 22.1051 16.2083 10.1863 0
454 3 H 26.6881 14.2007 1.62221 0
455 3 H 24.4229 14.2497 1.83426 0
478 1 C 27.1326 14.3602 2.59468 0
479 1 C 26.4377 14.805 3.71381 0
480 1 C 24.9581 14.9937 3.80975 0
481 1 C 24.0624 14.6084 2.78836 0
482 1 C 22.6747 14.6105 3.02216 0
314 3 H 35.3541 10.7213 1.58363 0
315 3 H 35.3559 10.9365 9.35844 0
460 3 H 33.8356 10.9321 3.38224 0
471 3 H 33.2528 14.0713 0.713904 0
512 1 C 33.8426 11.3212 5.90421 0
520 5 O 35.0068 11.8251 6.1368 0
524 5 O 32.7579 12.0322 5.84795 0
518 5 O 35.1072 13.9673 8.1755 0
214 6 S 2.1703 18.2979 8.77791 0
338 1 C 34.0655 20.5467 3.91627 0
494 1 C 35.0189 20.511 1.01556 0
459 3 H 34.0468 14.0599 6.06031 0
504 1 C 34.2239 14.5461 0.767978 0
451 7 Zn 32.6745 14.2178 5.95698 0
452 7 Zn 35.4214 13.8952 6.12654 0
463 3 H 34.0468 14.0599 6.06031 0
468 3 H 33.613 14.1443 6.04599 0
510 1 C 34.3697 14.2793 3.33691 0
517 5 O 35.3214 13.868 4.09838 0
523 5 O 33.1482 14.4227 3.76582 0
515 4 N 30.48 14.4302 5.72928 0
522 5 O 32.8354 14.19 8.17107 0
453 3 H 29.1525 13.7572 2.07843 0
476 1 C 28.8408 14.3385 4.1519 0
477 1 C 28.4677 14.1032 2.84307 0
337 1 C 34.0154 20.55 5.31453 0