Created by Ryther's code on 2025-07-29 22:47:03.177291, modified by xyan11@uic.edu. 

    528 atoms
    616 bonds
    1096 angles
    1280 dihedrals
    256 impropers

    8 atom types
    16 bond types
    36 angle types
    6 dihedral types
    2 improper types

0.00000000 22.84337115 xlo xhi
0.00000000 29.98811544 ylo yhi
0.00000000 29.89816951 zlo zhi
0.00485217 -0.00623834 2.32097334 xy xz yz 

Masses 

    1    12.0107  #   C
    2    1.00794  #   H
    3    14.0067  #   N
    4    15.9994  #   O
    5    15.9994  #   O
    6    15.9994  #   O
    7      65.38  #  Zn
    8      65.38  #  Zn

Pair Coeffs

    1       0.10500      3.43085  #  C_R C_R
    2       0.04400      2.57113  #  H_ H_
    3       0.06900      3.26069  #  N_2 N_2
    4       0.06000      3.11815  #  O_2_M O_2_M
    5       0.06000      3.11815  #  O_3_M O_3_M
    6       0.06000      3.11815  #  O_R O_R
    7       0.06000      2.58361  #  Zn6f3 Zn6f3
    8       0.04000      2.67270  #  Zn8f4 Zn8f4

Bond Coeffs

    1      43.32822      2.51269  #  O_2_M Zn8f4 bond order=0.5
    2      43.57940      2.59350  #  N_2 Zn8f4 bond order=0.5
    3      18.86555      2.24262  #  H_ Zn8f4 bond order=0.5
    4      42.04147      2.53807  #  O_3_M Zn8f4 bond order=0.5
    5      54.94924      2.40433  #  O_2_M Zn6f3 bond order=0.5
    6      55.07699      2.48452  #  N_2 Zn6f3 bond order=0.5
    7     357.44038      1.08142  #  C_R H_ bond order=1.0
    8     559.99521      0.99025  #  H_ O_3_M bond order=1.0
    9      24.34887      2.13340  #  H_ Zn6f3 bond order=0.5
    10    931.53598      1.20133  #  C_R N_2 bond order=3.0
    11    462.65505      1.37926  #  C_R C_R bond order=1.5
    12    646.62465      1.31194  #  C_R O_R bond order=1.5
    13    391.66951      1.45800  #  C_R C_R bond order=1.0
    14    714.55744      1.26901  #  C_R O_2_M bond order=1.5
    15    678.02790      1.29140  #  C_R O_3_M bond order=1.5
    16     53.24274      2.42975  #  O_3_M Zn6f3 bond order=0.5

Angle Coeffs

    1  fourier                 67.80662      0.34375      0.37500      0.28125  #  O_2_M Zn8f4 O_2_M
    2  fourier                 71.45583      0.34375      0.37500      0.28125  #  N_2 Zn8f4 O_2_M
    3  fourier                 24.62448      0.34375      0.37500      0.28125  #  H_ Zn8f4 O_2_M
    4  fourier                 66.78648      0.34375      0.37500      0.28125  #  O_2_M Zn8f4 O_3_M
    5  fourier                 25.79329      0.34375      0.37500      0.28125  #  H_ Zn8f4 N_2
    6  fourier                 70.41858      0.34375      0.37500      0.28125  #  N_2 Zn8f4 O_3_M
    7  fourier                 24.20745      0.34375      0.37500      0.28125  #  H_ Zn8f4 O_3_M
    8  cosine/periodic         67.02484            1            4  #  O_2_M Zn6f3 O_2_M
    9  cosine/periodic         70.47472            1            4  #  N_2 Zn6f3 O_2_M
    10 cosine/periodic         25.05849            1            1  #  O_3_M H_ Zn6f3
    11 cosine/periodic        179.74893           -1            3  #  C_R C_R N_2
    12 cosine/periodic        111.29751           -1            3  #  C_R C_R C_R
    13 cosine/periodic         57.28902           -1            3  #  C_R C_R H_
    14 cosine/periodic         75.41278           -1            3  #  H_ C_R O_R
    15 cosine/periodic        144.05325           -1            3  #  C_R C_R O_R
    16 cosine/periodic        102.18328           -1            3  #  C_R C_R C_R
    17 cosine/periodic        137.71425           -1            3  #  C_R C_R O_2_M
    18 cosine/periodic        206.77843           -1            3  #  O_2_M C_R O_2_M
    19 cosine/periodic        134.57449           -1            3  #  C_R C_R O_3_M
    20 cosine/periodic        201.38050           -1            3  #  O_2_M C_R O_3_M
    21 fourier                 38.69249      0.36401      0.41847      0.28800  #  C_R N_2 Zn8f4
    22 fourier                 48.02888      0.36401      0.41847      0.28800  #  C_R N_2 Zn6f3
    23 fourier                322.57640      0.35263      0.39441      0.28421  #  C_R O_R C_R
    24 cosine/periodic         21.77718           -1            3  #  C_R O_2_M Zn6f3
    25 cosine/periodic         17.67091           -1            3  #  C_R O_2_M Zn8f4
    26 fourier                203.65891      0.30023      0.26733      0.26675  #  C_R O_3_M H_
    27 fourier                 22.33312      0.30023      0.26733      0.26675  #  H_ O_3_M Zn6f3
    28 fourier                 55.81766      0.30023      0.26733      0.26675  #  C_R O_3_M Zn6f3
    29 cosine/periodic         23.92551            1            4  #  H_ Zn6f3 O_3_M
    30 cosine/periodic         24.38538            1            4  #  H_ Zn6f3 O_2_M
    31 cosine/periodic         25.39208            1            4  #  H_ Zn6f3 N_2
    32 cosine/periodic         65.96675            1            4  #  O_2_M Zn6f3 O_3_M
    33 cosine/periodic         69.42201            1            4  #  N_2 Zn6f3 O_3_M
    34 cosine/periodic         20.34317            1            1  #  O_3_M H_ Zn8f4
    35 fourier                 17.70941      0.30023      0.26733      0.26675  #  H_ O_3_M Zn8f4
    36 fourier                 44.86565      0.30023      0.26733      0.26675  #  C_R O_3_M Zn8f4

Dihedral Coeffs

    1      27.96100           -1            2  #  X C_R N_2 X bond order=3.0
    2       6.73711           -1            2  #  X C_R C_R X bond order=1.5
    3       6.73711           -1            2  #  X C_R O_R X bond order=1.5
    4       1.25000           -1            2  #  X C_R C_R X bond order=1.0
    5       6.73711           -1            2  #  X C_R O_2_M X bond order=1.5
    6       0.31957           -1            2  #  X C_R O_3_M X bond order=1.5

Improper Coeffs

    1       2.00000      1.00000     -1.00000      0.00000            1  #  C_R X X X O_2 present=False
    2      16.66667      1.00000     -1.00000      0.00000            1  #  C_R X X X O_2 present=True

Atoms # a, b, c, alpha, beta, gamma: 22.8433711496, 29.9881158364, 29.9881225808, 85.5610745255, 90.0119190617, 89.9907293627 $$$atoms$$$

    1 1     8      0.00000      3.17236     14.65813      0.24522   #   Zn1   0.13877291   0.48816304   0.00820169
    2 1     7      0.00000      6.10275     14.65811      0.24621   #   Zn2   0.26705498   0.48816002   0.00823494
    3 1     2      0.00000      1.02006     14.76345      4.01920   #    H1   0.04458891   0.48190575   0.13442959
    4 1     2      0.00000     10.19115     14.80340      5.45195   #    H2   0.44607955   0.47952884   0.18235061
    5 1     2      0.00000      3.85528     15.08142     14.25064   #    H3   0.16880135   0.46602319   0.47663914
    6 1     2      0.00000      6.01832     10.53757      1.90647   #    H4   0.26340420   0.34645627   0.06376555
    7 1     2      0.00000      6.02706      8.09675      1.89818   #    H5   0.26380387   0.26508475   0.06348802
    8 1     2      0.00000      3.24373      9.25796     13.54337   #    H6   0.14206416   0.27366175   0.45298323
    9 1     2      0.00000      3.25403     11.69835     13.53435   #    H7   0.14249799   0.35506351   0.45268153
   10 1     2      0.00000      4.68863      7.38542     13.03715   #    H8   0.20532516   0.21252920   0.43605189
   11 1     2      0.00000      4.67487      4.94503     13.03629   #    H9   0.20473994   0.13115308   0.43602294
   12 1     2      0.00000      4.59270      3.78440      2.40545   #   H10   0.20104816   0.11996980   0.08045463
   13 1     2      0.00000      4.58078      6.22522      2.40466   #   H11   0.20050900   0.20136480   0.08042840
   14 1     2      0.00000      5.94002     13.78322     11.22035   #   H12   0.26004360   0.43057709   0.37528551
   15 1     2      0.00000      5.95003     13.60216      8.78624   #   H13   0.26045939   0.43084051   0.29387228
   16 1     2      0.00000      3.32002      2.02434      8.52078   #   H14   0.14540661   0.04544720   0.28499321
   17 1     2      0.00000      3.32982      2.22175     10.95318   #   H15   0.14585790   0.04573355   0.36634958
   18 1     2      0.00000      4.78708      2.31831      6.62031   #   H16   0.20960858   0.06016982   0.22142875
   19 1     2      0.00000      4.77427      2.13090      4.18713   #   H17   0.20902572   0.06021901   0.14004641
   20 1     2      0.00000      4.49574     12.82793      4.52049   #   H18   0.19676004   0.41606511   0.15119622
   21 1     2      0.00000      4.48296     13.01818      6.95388   #   H19   0.19622299   0.41611001   0.23258557
   22 1     1      0.00000      0.47688     14.68393      1.16886   #    C1   0.02078354   0.48663253   0.03909476
   23 1     1      0.00000     11.03337     14.71600      2.31818   #    C2   0.48291929   0.48472673   0.07753576
   24 1     1      0.00000      0.00781     14.75278      3.63669   #    C3   0.00027262   0.48254006   0.12163601
   25 1     1      0.00000     10.25902     14.77330      4.37276   #    C4   0.44904044   0.48131893   0.14625520
   26 1     1      0.00000      9.65467     14.71623      2.32673   #    C5   0.42256455   0.48471231   0.07782192
   27 1     1      0.00000      8.79443     14.68407      1.17413   #    C6   0.38489553   0.48662359   0.03927109
   28 1     1      0.00000      4.63754     10.73019      0.24552   #    C7   0.20294114   0.35717926   0.00821190
   29 1     1      0.00000      5.40968     10.01642      1.17803   #    C8   0.23675647   0.33096348   0.03940146
   30 1     1      0.00000      5.40878      8.61866      1.17858   #    C9   0.23672718   0.28435166   0.03941992
   31 1     1      0.00000      4.63688      7.90385      0.24623   #   C10   0.20293223   0.26292879   0.00823564
   32 1     1      0.00000      3.86238      9.77960     14.26284   #   C11   0.16914993   0.28919418   0.47704735
   33 1     1      0.00000      3.86240     11.17742     14.26300   #   C12   0.16914069   0.33580602   0.47705251
   34 1     1      0.00000      4.63633      6.41833      0.24634   #   C13   0.20291852   0.21339154   0.00823930
   35 1     1      0.00000      4.65412      6.86368     13.98535   #   C14   0.20382713   0.19267657   0.46776623
   36 1     1      0.00000      4.65415      5.46587     13.98534   #   C15   0.20383869   0.14606437   0.46776586
   37 1     1      0.00000      4.63527      3.59199      0.24591   #   C16   0.20289237   0.11914401   0.00822493
   38 1     1      0.00000      4.61380      4.30564      1.45648   #   C17   0.20195891   0.13980800   0.04871472
   39 1     1      0.00000      4.61489      5.70340      1.45650   #   C18   0.20199677   0.18641838   0.04871520
   40 1     1      0.00000      4.63588     15.51477     11.27864   #   C19   0.20294150   0.48816731   0.37723508
   41 1     1      0.00000      5.36522     14.49589     10.64209   #   C20   0.23487005   0.45583888   0.35594462
   42 1     1      0.00000      5.36481     14.38719      9.24857   #   C21   0.23483964   0.45582145   0.30933555
   43 1     1      0.00000      4.63624     15.29532      8.46083   #   C22   0.20293120   0.48814390   0.28298826
   44 1     1      0.00000      3.90523      1.32019      9.09887   #   C23   0.17103556   0.02046992   0.30432866
   45 1     1      0.00000      3.90472      1.42823     10.49250   #   C24   0.17102605   0.02046505   0.35094123
   46 1     1      0.00000      4.63623     15.18025      6.97977   #   C25   0.20291727   0.48814070   0.23345157
   47 1     1      0.00000      4.70981      1.33510      6.17331   #   C26   0.20622863   0.02854031   0.20647799
   48 1     1      0.00000      4.71036      1.22691      4.77969   #   C27   0.20624020   0.02854028   0.15986577
   49 1     1      0.00000      4.63624     14.96196      4.16188   #   C28   0.20289200   0.48815596   0.13920177
   50 1     1      0.00000      4.55964     13.81247      4.96689   #   C29   0.19955487   0.44774053   0.16612686
   51 1     1      0.00000      4.56021     13.92060      6.36046   #   C30   0.19959264   0.44773875   0.21273742
   52 1     1      0.00000      4.63673     14.79381      2.68140   #   C31   0.20290037   0.48638117   0.08968436
   53 1     1      0.00000      4.63530     15.68293     12.75911   #   C32   0.20292891   0.48994245   0.42675231
   54 1     1      0.00000      4.63519      2.10295      0.19269   #   C33   0.20289890   0.06962718   0.00644503
   55 1     1      0.00000      4.63752     12.21923      0.29873   #   C34   0.20293035   0.40669591   0.00999167
   56 1     3      0.00000      1.17245     14.65814      0.24443   #    N1   0.05122405   0.48816544   0.00817540
   57 1     3      0.00000      8.10266     14.65820      0.24689   #    N2   0.35460382   0.48816128   0.00825757
   58 1     6      0.00000      9.22052     14.75076      3.56481   #    O1   0.40357089   0.48265878   0.11923158
   59 1     4      0.00000      5.74717     15.73930     13.25635   #    O2   0.25160707   0.49053511   0.44338337
   60 1     4      0.00000      5.74896     14.73742      2.18491   #    O3   0.25158535   0.48578588   0.07307841
   61 1     4      0.00000      5.74724      1.60322      0.17526   #    O4   0.25158350   0.05300808   0.00586206
   62 1     4      0.00000      5.74958     12.71896      0.31691   #    O5   0.25160887   0.42331292   0.01059968
   63 1     4      0.00000      3.52310      1.60322      0.17451   #    O6   0.15421897   0.05301015   0.00583694
   64 1     4      0.00000      3.52482     14.73744      2.18416   #    O7   0.15422082   0.48578848   0.07305327
   65 1     5      0.00000      3.52303     15.73932     13.25558   #    O8   0.15424254   0.49053770   0.44335769
   66 1     4      0.00000      3.52545     12.71898      0.31614   #    O9   0.15424435   0.42331550   0.01057404
   67 1     7      0.00000      3.16924     15.81861     15.19430   #   Zn1   0.13877291   0.48816304   0.50820169
   68 1     7      0.00000      6.09963     15.81860     15.19529   #   Zn2   0.26705498   0.48816002   0.50823494
   69 1     2      0.00000      1.01694     15.92394     18.96828   #    H1   0.04458891   0.48190575   0.63442959
   70 1     2      0.00000     10.18803     15.96388     20.40103   #    H2   0.44607955   0.47952884   0.68235061
   71 1     2      0.00000      3.85216     16.24191     29.19972   #    H3   0.16880135   0.46602319   0.97663914
   72 1     2      0.00000      6.01520     11.69806     16.85556   #    H4   0.26340420   0.34645627   0.56376555
   73 1     2      0.00000      6.02394      9.25723     16.84726   #    H5   0.26380387   0.26508475   0.56348802
   74 1     2      0.00000      3.24061     10.41845     28.49245   #    H6   0.14206416   0.27366175   0.95298323
   75 1     2      0.00000      3.25091     12.85883     28.48343   #    H7   0.14249799   0.35506351   0.95268153
   76 1     2      0.00000      4.68551      8.54590     27.98624   #    H8   0.20532516   0.21252920   0.93605189
   77 1     2      0.00000      4.67175      6.10552     27.98537   #    H9   0.20473994   0.13115308   0.93602294
   78 1     2      0.00000      4.58958      4.94489     17.35453   #   H10   0.20104816   0.11996980   0.58045463
   79 1     2      0.00000      4.57766      7.38571     17.35375   #   H11   0.20050900   0.20136480   0.58042840
   80 1     2      0.00000      5.93690     14.94371     26.16943   #   H12   0.26004360   0.43057709   0.87528551
   81 1     2      0.00000      5.94691     14.76265     23.73533   #   H13   0.26045939   0.43084051   0.79387228
   82 1     2      0.00000      3.31690      3.18482     23.46986   #   H14   0.14540661   0.04544720   0.78499321
   83 1     2      0.00000      3.32670      3.38224     25.90227   #   H15   0.14585790   0.04573355   0.86634958
   84 1     2      0.00000      4.78396      3.47880     21.56940   #   H16   0.20960858   0.06016982   0.72142875
   85 1     2      0.00000      4.77115      3.29139     19.13622   #   H17   0.20902572   0.06021901   0.64004641
   86 1     2      0.00000      4.49262     13.98842     19.46957   #   H18   0.19676004   0.41606511   0.65119622
   87 1     2      0.00000      4.47984     14.17867     21.90297   #   H19   0.19622299   0.41611001   0.73258557
   88 1     1      0.00000      0.47376     15.84442     16.11795   #    C1   0.02078354   0.48663253   0.53909476
   89 1     1      0.00000     11.03025     15.87649     17.26726   #    C2   0.48291929   0.48472673   0.57753576
   90 1     1      0.00000      0.00469     15.91327     18.58578   #    C3   0.00027262   0.48254006   0.62163601
   91 1     1      0.00000     10.25590     15.93379     19.32185   #    C4   0.44904044   0.48131893   0.64625520
   92 1     1      0.00000      9.65155     15.87672     17.27582   #    C5   0.42256455   0.48471231   0.57782192
   93 1     1      0.00000      8.79131     15.84456     16.12322   #    C6   0.38489553   0.48662359   0.53927109
   94 1     1      0.00000      4.63442     11.89068     15.19461   #    C7   0.20294114   0.35717926   0.50821190
   95 1     1      0.00000      5.40656     11.17691     16.12712   #    C8   0.23675647   0.33096348   0.53940146
   96 1     1      0.00000      5.40566      9.77915     16.12767   #    C9   0.23672718   0.28435166   0.53941992
   97 1     1      0.00000      4.63376      9.06434     15.19532   #   C10   0.20293223   0.26292879   0.50823564
   98 1     1      0.00000      3.85926     10.94009     29.21193   #   C11   0.16914993   0.28919418   0.97704735
   99 1     1      0.00000      3.85928     12.33790     29.21208   #   C12   0.16914069   0.33580602   0.97705251
  100 1     1      0.00000      4.63321      7.57882     15.19542   #   C13   0.20291852   0.21339154   0.50823930
  101 1     1      0.00000      4.65100      8.02417     28.93444   #   C14   0.20382713   0.19267657   0.96776623
  102 1     1      0.00000      4.65103      6.62635     28.93443   #   C15   0.20383869   0.14606437   0.96776586
  103 1     1      0.00000      4.63215      4.75248     15.19500   #   C16   0.20289237   0.11914401   0.50822493
  104 1     1      0.00000      4.61068      5.46613     16.40557   #   C17   0.20195891   0.13980800   0.54871472
  105 1     1      0.00000      4.61177      6.86389     16.40558   #   C18   0.20199677   0.18641838   0.54871520
  106 1     1      0.00000      4.63276     16.67526     26.22772   #   C19   0.20294150   0.48816731   0.87723508
  107 1     1      0.00000      5.36210     15.65637     25.59118   #   C20   0.23487005   0.45583888   0.85594462
  108 1     1      0.00000      5.36169     15.54767     24.19765   #   C21   0.23483964   0.45582145   0.80933555
  109 1     1      0.00000      4.63312     16.45581     23.40992   #   C22   0.20293120   0.48814390   0.78298826
  110 1     1      0.00000      3.90211      2.48068     24.04795   #   C23   0.17103556   0.02046992   0.80432866
  111 1     1      0.00000      3.90160      2.58872     25.44159   #   C24   0.17102605   0.02046505   0.85094123
  112 1     1      0.00000      4.63311     16.34074     21.92886   #   C25   0.20291727   0.48814070   0.73345157
  113 1     1      0.00000      4.70669      2.49559     21.12240   #   C26   0.20622863   0.02854031   0.70647799
  114 1     1      0.00000      4.70724      2.38740     19.72878   #   C27   0.20624020   0.02854028   0.65986577
  115 1     1      0.00000      4.63312     16.12245     19.11096   #   C28   0.20289200   0.48815596   0.63920177
  116 1     1      0.00000      4.55652     14.97296     19.91597   #   C29   0.19955487   0.44774053   0.66612686
  117 1     1      0.00000      4.55709     15.08109     21.30954   #   C30   0.19959264   0.44773875   0.71273742
  118 1     1      0.00000      4.63361     15.95430     17.63048   #   C31   0.20290037   0.48638117   0.58968436
  119 1     1      0.00000      4.63218     16.84342     27.70820   #   C32   0.20292891   0.48994245   0.92675231
  120 1     1      0.00000      4.63207      3.26343     15.14178   #   C33   0.20289890   0.06962718   0.50644503
  121 1     1      0.00000      4.63441     13.37972     15.24782   #   C34   0.20293035   0.40669591   0.50999167
  122 1     3      0.00000      1.16933     15.81862     15.19351   #    N1   0.05122405   0.48816544   0.50817540
  123 1     3      0.00000      8.09954     15.81869     15.19597   #    N2   0.35460382   0.48816128   0.50825757
  124 1     6      0.00000      9.21740     15.91125     18.51389   #    O1   0.40357089   0.48265878   0.61923158
  125 1     4      0.00000      5.74405     16.89979     28.20544   #    O2   0.25160707   0.49053511   0.94338337
  126 1     4      0.00000      5.74584     15.89790     17.13400   #    O3   0.25158535   0.48578588   0.57307841
  127 1     4      0.00000      5.74412      2.76370     15.12435   #    O4   0.25158350   0.05300808   0.50586206
  128 1     4      0.00000      5.74646     13.87944     15.26600   #    O5   0.25160887   0.42331292   0.51059968
  129 1     4      0.00000      3.51998      2.76371     15.12360   #    O6   0.15421897   0.05301015   0.50583694
  130 1     4      0.00000      3.52171     15.89792     17.13324   #    O7   0.15422082   0.48578848   0.57305327
  131 1     5      0.00000      3.51991     16.89981     28.20467   #    O8   0.15424254   0.49053770   0.94335769
  132 1     4      0.00000      3.52233     13.87946     15.26523   #    O9   0.15424435   0.42331550   0.51057404
  133 1     8      0.00000      3.17478     29.65218      0.24522   #   Zn1   0.13877291   0.98816304   0.00820169
  134 1     7      0.00000      6.10518     29.65217      0.24621   #   Zn2   0.26705498   0.98816002   0.00823494
  135 1     2      0.00000      1.02249     29.75751      4.01920   #    H1   0.04458891   0.98190575   0.13442959
  136 1     2      0.00000     10.19358     29.79745      5.45195   #    H2   0.44607955   0.97952884   0.18235061
  137 1     2      0.00000      3.85771     30.07548     14.25064   #    H3   0.16880135   0.96602319   0.47663914
  138 1     2      0.00000      6.02075     25.53163      1.90647   #    H4   0.26340420   0.84645627   0.06376555
  139 1     2      0.00000      6.02949     23.09080      1.89818   #    H5   0.26380387   0.76508475   0.06348802
  140 1     2      0.00000      3.24615     24.25202     13.54337   #    H6   0.14206416   0.77366175   0.45298323
  141 1     2      0.00000      3.25646     26.69240     13.53435   #    H7   0.14249799   0.85506351   0.45268153
  142 1     2      0.00000      4.69106     22.37947     13.03715   #    H8   0.20532516   0.71252920   0.43605189
  143 1     2      0.00000      4.67729     19.93909     13.03629   #    H9   0.20473994   0.63115308   0.43602294
  144 1     2      0.00000      4.59512     18.77846      2.40545   #   H10   0.20104816   0.61996980   0.08045463
  145 1     2      0.00000      4.58320     21.21928      2.40466   #   H11   0.20050900   0.70136480   0.08042840
  146 1     2      0.00000      5.94245     28.77728     11.22035   #   H12   0.26004360   0.93057709   0.37528551
  147 1     2      0.00000      5.95245     28.59622      8.78624   #   H13   0.26045939   0.93084051   0.29387228
  148 1     2      0.00000      3.32245     17.01840      8.52078   #   H14   0.14540661   0.54544720   0.28499321
  149 1     2      0.00000      3.33225     17.21581     10.95318   #   H15   0.14585790   0.54573355   0.36634958
  150 1     2      0.00000      4.78950     17.31237      6.62031   #   H16   0.20960858   0.56016982   0.22142875
  151 1     2      0.00000      4.77670     17.12496      4.18713   #   H17   0.20902572   0.56021901   0.14004641
  152 1     2      0.00000      4.49816     27.82199      4.52049   #   H18   0.19676004   0.91606511   0.15119622
  153 1     2      0.00000      4.48539     28.01224      6.95388   #   H19   0.19622299   0.91611001   0.23258557
  154 1     1      0.00000      0.47931     29.67799      1.16886   #    C1   0.02078354   0.98663253   0.03909476
  155 1     1      0.00000     11.03580     29.71006      2.31818   #    C2   0.48291929   0.98472673   0.07753576
  156 1     1      0.00000      0.01024     29.74684      3.63669   #    C3   0.00027262   0.98254006   0.12163601
  157 1     1      0.00000     10.26145     29.76736      4.37276   #    C4   0.44904044   0.98131893   0.14625520
  158 1     1      0.00000      9.65709     29.71029      2.32673   #    C5   0.42256455   0.98471231   0.07782192
  159 1     1      0.00000      8.79685     29.67813      1.17413   #    C6   0.38489553   0.98662359   0.03927109
  160 1     1      0.00000      4.63997     25.72425      0.24552   #    C7   0.20294114   0.85717926   0.00821190
  161 1     1      0.00000      5.41210     25.01048      1.17803   #    C8   0.23675647   0.83096348   0.03940146
  162 1     1      0.00000      5.41121     23.61272      1.17858   #    C9   0.23672718   0.78435166   0.03941992
  163 1     1      0.00000      4.63931     22.89791      0.24623   #   C10   0.20293223   0.76292879   0.00823564
  164 1     1      0.00000      3.86481     24.77366     14.26284   #   C11   0.16914993   0.78919418   0.47704735
  165 1     1      0.00000      3.86482     26.17147     14.26300   #   C12   0.16914069   0.83580602   0.47705251
  166 1     1      0.00000      4.63875     21.41239      0.24634   #   C13   0.20291852   0.71339154   0.00823930
  167 1     1      0.00000      4.65654     21.85774     13.98535   #   C14   0.20382713   0.69267657   0.46776623
  168 1     1      0.00000      4.65658     20.45993     13.98534   #   C15   0.20383869   0.64606437   0.46776586
  169 1     1      0.00000      4.63770     18.58605      0.24591   #   C16   0.20289237   0.61914401   0.00822493
  170 1     1      0.00000      4.61622     19.29970      1.45648   #   C17   0.20195891   0.63980800   0.04871472
  171 1     1      0.00000      4.61731     20.69746      1.45650   #   C18   0.20199677   0.68641838   0.04871520
  172 1     1      0.00000      4.63831     30.50883     11.27864   #   C19   0.20294150   0.98816731   0.37723508
  173 1     1      0.00000      5.36764     29.48994     10.64209   #   C20   0.23487005   0.95583888   0.35594462
  174 1     1      0.00000      5.36724     29.38124      9.24857   #   C21   0.23483964   0.95582145   0.30933555
  175 1     1      0.00000      4.63866     30.28938      8.46083   #   C22   0.20293120   0.98814390   0.28298826
  176 1     1      0.00000      3.90766     16.31425      9.09887   #   C23   0.17103556   0.52046992   0.30432866
  177 1     1      0.00000      3.90715     16.42229     10.49250   #   C24   0.17102605   0.52046505   0.35094123
  178 1     1      0.00000      4.63865     30.17431      6.97977   #   C25   0.20291727   0.98814070   0.23345157
  179 1     1      0.00000      4.71223     16.32916      6.17331   #   C26   0.20622863   0.52854031   0.20647799
  180 1     1      0.00000      4.71279     16.22097      4.77969   #   C27   0.20624020   0.52854028   0.15986577
  181 1     1      0.00000      4.63866     29.95602      4.16188   #   C28   0.20289200   0.98815596   0.13920177
  182 1     1      0.00000      4.56207     28.80653      4.96689   #   C29   0.19955487   0.94774053   0.16612686
  183 1     1      0.00000      4.56264     28.91466      6.36046   #   C30   0.19959264   0.94773875   0.21273742
  184 1     1      0.00000      4.63916     29.78787      2.68140   #   C31   0.20290037   0.98638117   0.08968436
  185 1     1      0.00000      4.63772     30.67699     12.75911   #   C32   0.20292891   0.98994245   0.42675231
  186 1     1      0.00000      4.63762     17.09700      0.19269   #   C33   0.20289890   0.56962718   0.00644503
  187 1     1      0.00000      4.63995     27.21329      0.29873   #   C34   0.20293035   0.90669591   0.00999167
  188 1     3      0.00000      1.17487     29.65219      0.24443   #    N1   0.05122405   0.98816544   0.00817540
  189 1     3      0.00000      8.10509     29.65226      0.24689   #    N2   0.35460382   0.98816128   0.00825757
  190 1     6      0.00000      9.22294     29.74482      3.56481   #    O1   0.40357089   0.98265878   0.11923158
  191 1     4      0.00000      5.74959     30.73336     13.25635   #    O2   0.25160707   0.99053511   0.44338337
  192 1     4      0.00000      5.75138     29.73147      2.18491   #    O3   0.25158535   0.98578588   0.07307841
  193 1     4      0.00000      5.74966     16.59728      0.17526   #    O4   0.25158350   0.55300808   0.00586206
  194 1     4      0.00000      5.75201     27.71302      0.31691   #    O5   0.25160887   0.92331292   0.01059968
  195 1     4      0.00000      3.52553     16.59728      0.17451   #    O6   0.15421897   0.55301015   0.00583694
  196 1     4      0.00000      3.52725     29.73149      2.18416   #    O7   0.15422082   0.98578848   0.07305327
  197 1     5      0.00000      3.52546     30.73338     13.25558   #    O8   0.15424254   0.99053770   0.44335769
  198 1     4      0.00000      3.52787     27.71303      0.31614   #    O9   0.15424435   0.92331550   0.01057404
  199 1     8      0.00000      3.17167     30.81267     15.19430   #   Zn1   0.13877291   0.98816304   0.50820169
  200 1     7      0.00000      6.10206     30.81266     15.19529   #   Zn2   0.26705498   0.98816002   0.50823494
  201 1     2      0.00000      1.01937     30.91800     18.96828   #    H1   0.04458891   0.98190575   0.63442959
  202 1     2      0.00000     10.19046     30.95794     20.40103   #    H2   0.44607955   0.97952884   0.68235061
  203 1     2      0.00000      3.85459     31.23597     29.19972   #    H3   0.16880135   0.96602319   0.97663914
  204 1     2      0.00000      6.01763     26.69211     16.85556   #    H4   0.26340420   0.84645627   0.56376555
  205 1     2      0.00000      6.02637     24.25129     16.84726   #    H5   0.26380387   0.76508475   0.56348802
  206 1     2      0.00000      3.24303     25.41251     28.49245   #    H6   0.14206416   0.77366175   0.95298323
  207 1     2      0.00000      3.25334     27.85289     28.48343   #    H7   0.14249799   0.85506351   0.95268153