ITEM: TIMESTEP
0
ITEM: NUMBER OF ATOMS
528
ITEM: BOX BOUNDS xy xz yz pp pp pp
-6.2383400000000002e-03 2.2848223319999999e+01 4.8521700000000003e-03
0.0000000000000000e+00 3.2309088780000003e+01 -6.2383400000000002e-03
0.0000000000000000e+00 2.9898169509999999e+01 2.3209733400000001e+00
ITEM: ATOMS id type element x y z q
12 2 H 4.5927 3.7844 2.40545 0
13 2 H 4.58078 6.22522 2.40466 0
18 2 H 4.78708 2.31831 6.62031 0
19 2 H 4.77427 2.1309 4.18713 0
31 1 C 4.63688 7.90385 0.24623 0
34 1 C 4.63633 6.41833 0.24634 0
37 1 C 4.63527 3.59199 0.24591 0
38 1 C 4.6138 4.30564 1.45648 0
39 1 C 4.61489 5.7034 1.4565 0
47 1 C 4.70981 1.3351 6.17331 0
48 1 C 4.71036 1.22691 4.77969 0
54 1 C 4.63519 2.10295 0.19269 0
61 4 O 5.74724 1.60322 0.17526 0
63 4 O 3.5231 1.60322 0.17451 0
327 4 O 14.9448 1.60322 0.17451 0
276 2 H 16.0144 3.7844 2.40545 0
277 2 H 16.0025 6.22522 2.40466 0
282 2 H 16.2088 2.31831 6.62031 0
283 2 H 16.196 2.1309 4.18713 0
295 1 C 16.0586 7.90385 0.24623 0
298 1 C 16.058 6.41833 0.24634 0
301 1 C 16.057 3.59199 0.24591 0
302 1 C 16.0355 4.30564 1.45648 0
303 1 C 16.0366 5.7034 1.4565 0
311 1 C 16.1315 1.3351 6.17331 0
312 1 C 16.1321 1.22691 4.77969 0
318 1 C 16.0569 2.10295 0.19269 0
325 4 O 17.1689 1.60322 0.17526 0
1 8 Zn 3.17236 14.6581 0.24522 0
2 7 Zn 6.10275 14.6581 0.24621 0
3 2 H 1.02006 14.7635 4.0192 0
6 2 H 6.01832 10.5376 1.90647 0
7 2 H 6.02706 8.09675 1.89818 0
20 2 H 4.49574 12.8279 4.52049 0
21 2 H 4.48296 13.0182 6.95388 0
22 1 C 0.47688 14.6839 1.16886 0
24 1 C 0.00781 14.7528 3.63669 0
28 1 C 4.63754 10.7302 0.24552 0
29 1 C 5.40968 10.0164 1.17803 0
30 1 C 5.40878 8.61866 1.17858 0
46 1 C 4.63623 15.1803 6.97977 0
49 1 C 4.63624 14.962 4.16188 0
50 1 C 4.55964 13.8125 4.96689 0
51 1 C 4.56021 13.9206 6.36046 0
52 1 C 4.63673 14.7938 2.6814 0
55 1 C 4.63752 12.2192 0.29873 0
56 3 N 1.17245 14.6581 0.24443 0
60 4 O 5.74896 14.7374 2.18491 0
62 4 O 5.74958 12.719 0.31691 0
64 4 O 3.52482 14.7374 2.18416 0
66 4 O 3.52545 12.719 0.31614 0
4 2 H 10.1911 14.8034 5.45195 0
23 1 C 11.0334 14.716 2.31818 0
25 1 C 10.259 14.7733 4.37276 0
26 1 C 9.65467 14.7162 2.32673 0
27 1 C 8.79443 14.6841 1.17413 0
57 3 N 8.10266 14.6582 0.24689 0
58 6 O 9.22052 14.7508 3.56481 0
265 8 Zn 14.594 14.6581 0.24522 0
267 2 H 12.4418 14.7635 4.0192 0
286 1 C 11.8986 14.6839 1.16886 0
288 1 C 11.4295 14.7528 3.63669 0
320 3 N 12.5941 14.6581 0.24443 0
328 4 O 14.9465 14.7374 2.18416 0
330 4 O 14.9471 12.719 0.31614 0
266 7 Zn 17.5244 14.6581 0.24621 0
268 2 H 21.6128 14.8034 5.45195 0
270 2 H 17.44 10.5376 1.90647 0
271 2 H 17.4487 8.09675 1.89818 0
284 2 H 15.9174 12.8279 4.52049 0
285 2 H 15.9047 13.0182 6.95388 0
287 1 C 22.4551 14.716 2.31818 0
289 1 C 21.6807 14.7733 4.37276 0
290 1 C 21.0764 14.7162 2.32673 0
291 1 C 20.2161 14.6841 1.17413 0
292 1 C 16.0592 10.7302 0.24552 0
293 1 C 16.8314 10.0164 1.17803 0
294 1 C 16.8305 8.61866 1.17858 0
310 1 C 16.0579 15.1803 6.97977 0
313 1 C 16.0579 14.962 4.16188 0
314 1 C 15.9813 13.8125 4.96689 0
315 1 C 15.9819 13.9206 6.36046 0
316 1 C 16.0584 14.7938 2.6814 0
319 1 C 16.0592 12.2192 0.29873 0
321 3 N 19.5244 14.6582 0.24689 0
322 6 O 20.6422 14.7508 3.56481 0
324 4 O 17.1706 14.7374 2.18491 0
326 4 O 17.1713 12.719 0.31691 0
139 2 H 6.02949 23.0908 1.89818 0
144 2 H 4.59512 18.7785 2.40545 0
145 2 H 4.5832 21.2193 2.40466 0
150 2 H 4.7895 17.3124 6.62031 0
151 2 H 4.7767 17.125 4.18713 0
162 1 C 5.41121 23.6127 1.17858 0
163 1 C 4.63931 22.8979 0.24623 0
166 1 C 4.63875 21.4124 0.24634 0
169 1 C 4.6377 18.586 0.24591 0
170 1 C 4.61622 19.2997 1.45648 0
171 1 C 4.61731 20.6975 1.4565 0
179 1 C 4.71223 16.3292 6.17331 0
180 1 C 4.71279 16.221 4.77969 0
186 1 C 4.63762 17.097 0.19269 0
193 4 O 5.74966 16.5973 0.17526 0
195 4 O 3.52553 16.5973 0.17451 0
459 4 O 14.9472 16.5973 0.17451 0
403 2 H 17.4512 23.0908 1.89818 0
408 2 H 16.0168 18.7785 2.40545 0
409 2 H 16.0049 21.2193 2.40466 0
414 2 H 16.2112 17.3124 6.62031 0
415 2 H 16.1984 17.125 4.18713 0
426 1 C 16.8329 23.6127 1.17858 0
427 1 C 16.061 22.8979 0.24623 0
430 1 C 16.0604 21.4124 0.24634 0
433 1 C 16.0594 18.586 0.24591 0
434 1 C 16.0379 19.2997 1.45648 0
435 1 C 16.039 20.6975 1.4565 0
443 1 C 16.1339 16.3292 6.17331 0
444 1 C 16.1345 16.221 4.77969 0
450 1 C 16.0593 17.097 0.19269 0
457 4 O 17.1714 16.5973 0.17526 0
133 8 Zn 3.17478 29.6522 0.24522 0
134 7 Zn 6.10518 29.6522 0.24621 0
135 2 H 1.02249 29.7575 4.0192 0
138 2 H 6.02075 25.5316 1.90647 0
152 2 H 4.49816 27.822 4.52049 0
153 2 H 4.48539 28.0122 6.95388 0
154 1 C 0.47931 29.678 1.16886 0
156 1 C 0.01024 29.7468 3.63669 0
160 1 C 4.63997 25.7243 0.24552 0
161 1 C 5.4121 25.0105 1.17803 0
178 1 C 4.63865 30.1743 6.97977 0
181 1 C 4.63866 29.956 4.16188 0
182 1 C 4.56207 28.8065 4.96689 0
183 1 C 4.56264 28.9147 6.36046 0
184 1 C 4.63916 29.7879 2.6814 0
187 1 C 4.63995 27.2133 0.29873 0
188 3 N 1.17487 29.6522 0.24443 0
192 4 O 5.75138 29.7315 2.18491 0
194 4 O 5.75201 27.713 0.31691 0
196 4 O 3.52725 29.7315 2.18416 0
198 4 O 3.52787 27.713 0.31614 0
136 2 H 10.1936 29.7975 5.45195 0
155 1 C 11.0358 29.7101 2.31818 0
157 1 C 10.2615 29.7674 4.37276 0
158 1 C 9.65709 29.7103 2.32673 0
159 1 C 8.79685 29.6781 1.17413 0
189 3 N 8.10509 29.6523 0.24689 0
190 6 O 9.22294 29.7448 3.56481 0
397 8 Zn 14.5965 29.6522 0.24522 0
399 2 H 12.4442 29.7575 4.0192 0
418 1 C 11.901 29.678 1.16886 0
420 1 C 11.4319 29.7468 3.63669 0
452 3 N 12.5966 29.6522 0.24443 0
460 4 O 14.9489 29.7315 2.18416 0
462 4 O 14.9496 27.713 0.31614 0
398 7 Zn 17.5269 29.6522 0.24621 0
400 2 H 21.6153 29.7975 5.45195 0
402 2 H 17.4424 25.5316 1.90647 0
416 2 H 15.9199 27.822 4.52049 0
417 2 H 15.9071 28.0122 6.95388 0
419 1 C 22.4575 29.7101 2.31818 0
421 1 C 21.6831 29.7674 4.37276 0
422 1 C 21.0788 29.7103 2.32673 0
423 1 C 20.2185 29.6781 1.17413 0
424 1 C 16.0617 25.7243 0.24552 0
425 1 C 16.8338 25.0105 1.17803 0
442 1 C 16.0603 30.1743 6.97977 0
445 1 C 16.0603 29.956 4.16188 0
446 1 C 15.9837 28.8065 4.96689 0
447 1 C 15.9843 28.9147 6.36046 0
448 1 C 16.0608 29.7879 2.6814 0
451 1 C 16.0616 27.2133 0.29873 0
453 3 N 19.5268 29.6523 0.24689 0
454 6 O 20.6446 29.7448 3.56481 0
456 4 O 17.1731 29.7315 2.18491 0
458 4 O 17.1737 27.713 0.31691 0
10 2 H 4.68863 7.38542 13.0371 0
11 2 H 4.67487 4.94503 13.0363 0
16 2 H 3.32002 2.02434 8.52078 0
17 2 H 3.32982 2.22175 10.9532 0
35 1 C 4.65412 6.86368 13.9854 0
36 1 C 4.65415 5.46587 13.9853 0
44 1 C 3.90523 1.32019 9.09887 0
45 1 C 3.90472 1.42823 10.4925 0
280 2 H 14.7417 2.02434 8.52078 0
281 2 H 14.7515 2.22175 10.9532 0
274 2 H 16.1103 7.38542 13.0371 0
275 2 H 16.0965 4.94503 13.0363 0
299 1 C 16.0758 6.86368 13.9854 0
300 1 C 16.0758 5.46587 13.9853 0
308 1 C 15.3269 1.32019 9.09887 0
309 1 C 15.3264 1.42823 10.4925 0
5 2 H 3.85528 15.0814 14.2506 0
8 2 H 3.24373 9.25796 13.5434 0
9 2 H 3.25403 11.6984 13.5344 0
14 2 H 5.94002 13.7832 11.2204 0
15 2 H 5.95003 13.6022 8.78624 0
32 1 C 3.86238 9.7796 14.2628 0
33 1 C 3.8624 11.1774 14.263 0
40 1 C 4.63588 15.5148 11.2786 0
41 1 C 5.36522 14.4959 10.6421 0
42 1 C 5.36481 14.3872 9.24857 0
43 1 C 4.63624 15.2953 8.46083 0
53 1 C 4.6353 15.6829 12.7591 0
59 4 O 5.74717 15.7393 13.2564 0
65 5 O 3.52303 15.7393 13.2556 0
272 2 H 14.6654 9.25796 13.5434 0
273 2 H 14.6757 11.6984 13.5344 0
329 5 O 14.9447 15.7393 13.2556 0
269 2 H 15.277 15.0814 14.2506 0
278 2 H 17.3617 13.7832 11.2204 0
279 2 H 17.3717 13.6022 8.78624 0
296 1 C 15.2841 9.7796 14.2628 0
297 1 C 15.2841 11.1774 14.263 0
304 1 C 16.0576 15.5148 11.2786 0
305 1 C 16.7869 14.4959 10.6421 0
306 1 C 16.7865 14.3872 9.24857 0
307 1 C 16.0579 15.2953 8.46083 0
317 1 C 16.057 15.6829 12.7591 0
323 4 O 17.1689 15.7393 13.2564 0
142 2 H 4.69106 22.3795 13.0371 0
143 2 H 4.67729 19.9391 13.0363 0
148 2 H 3.32245 17.0184 8.52078 0
149 2 H 3.33225 17.2158 10.9532 0
167 1 C 4.65654 21.8577 13.9854 0
168 1 C 4.65658 20.4599 13.9853 0
176 1 C 3.90766 16.3142 9.09887 0
177 1 C 3.90715 16.4223 10.4925 0
412 2 H 14.7441 17.0184 8.52078 0
413 2 H 14.7539 17.2158 10.9532 0
406 2 H 16.1127 22.3795 13.0371 0
407 2 H 16.099 19.9391 13.0363 0
431 1 C 16.0782 21.8577 13.9854 0
432 1 C 16.0783 20.4599 13.9853 0
440 1 C 15.3293 16.3142 9.09887 0
441 1 C 15.3288 16.4223 10.4925 0
137 2 H 3.85771 30.0755 14.2506 0
140 2 H 3.24615 24.252 13.5434 0
141 2 H 3.25646 26.6924 13.5344 0
146 2 H 5.94245 28.7773 11.2204 0
147 2 H 5.95245 28.5962 8.78624 0
164 1 C 3.86481 24.7737 14.2628 0
165 1 C 3.86482 26.1715 14.263 0
172 1 C 4.63831 30.5088 11.2786 0
173 1 C 5.36764 29.4899 10.6421 0
174 1 C 5.36724 29.3812 9.24857 0
175 1 C 4.63866 30.2894 8.46083 0
185 1 C 4.63772 30.677 12.7591 0
191 4 O 5.74959 30.7334 13.2564 0
197 5 O 3.52546 30.7334 13.2556 0
404 2 H 14.6678 24.252 13.5434 0
405 2 H 14.6782 26.6924 13.5344 0
461 5 O 14.9472 30.7334 13.2556 0
401 2 H 15.2794 30.0755 14.2506 0
410 2 H 17.3641 28.7773 11.2204 0
411 2 H 17.3741 28.5962 8.78624 0
428 1 C 15.2865 24.7737 14.2628 0
429 1 C 15.2865 26.1715 14.263 0
436 1 C 16.06 30.5088 11.2786 0
437 1 C 16.7893 29.4899 10.6421 0
438 1 C 16.7889 29.3812 9.24857 0
439 1 C 16.0603 30.2894 8.46083 0
449 1 C 16.0594 30.677 12.7591 0
455 4 O 17.1713 30.7334 13.2564 0
78 2 H 4.58958 4.94489 17.3545 0
79 2 H 4.57766 7.38571 17.3538 0
84 2 H 4.78396 3.4788 21.5694 0
85 2 H 4.77115 3.29139 19.1362 0
100 1 C 4.63321 7.57882 15.1954 0
103 1 C 4.63215 4.75248 15.195 0
104 1 C 4.61068 5.46613 16.4056 0
105 1 C 4.61177 6.86389 16.4056 0
113 1 C 4.70669 2.49559 21.1224 0
114 1 C 4.70724 2.3874 19.7288 0
120 1 C 4.63207 3.26343 15.1418 0
127 4 O 5.74412 2.7637 15.1244 0
129 4 O 3.51998 2.76371 15.1236 0
393 4 O 14.9417 2.76371 15.1236 0
342 2 H 16.0113 4.94489 17.3545 0
343 2 H 15.9993 7.38571 17.3538 0
348 2 H 16.2056 3.4788 21.5694 0
349 2 H 16.1928 3.29139 19.1362 0
364 1 C 16.0549 7.57882 15.1954 0
367 1 C 16.0538 4.75248 15.195 0
368 1 C 16.0324 5.46613 16.4056 0
369 1 C 16.0334 6.86389 16.4056 0
377 1 C 16.1284 2.49559 21.1224 0
378 1 C 16.1289 2.3874 19.7288 0
384 1 C 16.0538 3.26343 15.1418 0
391 4 O 17.1658 2.7637 15.1244 0
67 7 Zn 3.16924 15.8186 15.1943 0
68 7 Zn 6.09963 15.8186 15.1953 0
69 2 H 1.01694 15.9239 18.9683 0
72 2 H 6.0152 11.6981 16.8556 0
73 2 H 6.02394 9.25723 16.8473 0
86 2 H 4.49262 13.9884 19.4696 0
87 2 H 4.47984 14.1787 21.903 0
88 1 C 0.47376 15.8444 16.118 0
90 1 C 0.00469 15.9133 18.5858 0
94 1 C 4.63442 11.8907 15.1946 0
95 1 C 5.40656 11.1769 16.1271 0
96 1 C 5.40566 9.77915 16.1277 0
97 1 C 4.63376 9.06434 15.1953 0
115 1 C 4.63312 16.1224 19.111 0
116 1 C 4.55652 14.973 19.916 0
117 1 C 4.55709 15.0811 21.3095 0
118 1 C 4.63361 15.9543 17.6305 0
121 1 C 4.63441 13.3797 15.2478 0
122 3 N 1.16933 15.8186 15.1935 0
126 4 O 5.74584 15.8979 17.134 0
128 4 O 5.74646 13.8794 15.266 0
130 4 O 3.52171 15.8979 17.1332 0
132 4 O 3.52233 13.8795 15.2652 0
70 2 H 10.188 15.9639 20.401 0
89 1 C 11.0302 15.8765 17.2673 0
91 1 C 10.2559 15.9338 19.3218 0
92 1 C 9.65155 15.8767 17.2758 0
93 1 C 8.79131 15.8446 16.1232 0
123 3 N 8.09954 15.8187 15.196 0
124 6 O 9.2174 15.9113 18.5139 0
331 7 Zn 14.5909 15.8186 15.1943 0
333 2 H 12.4386 15.9239 18.9683 0
352 1 C 11.8955 15.8444 16.118 0
354 1 C 11.4264 15.9133 18.5858 0
386 3 N 12.591 15.8186 15.1935 0
394 4 O 14.9434 15.8979 17.1332 0
396 4 O 14.944 13.8795 15.2652 0
332 7 Zn 17.5213 15.8186 15.1953 0
334 2 H 21.6097 15.9639 20.401 0
336 2 H 17.4369 11.6981 16.8556 0
337 2 H 17.4456 9.25723 16.8473 0
350 2 H 15.9143 13.9884 19.4696 0
351 2 H 15.9015 14.1787 21.903 0
353 1 C 22.4519 15.8765 17.2673 0
355 1 C 21.6776 15.9338 19.3218 0
356 1 C 21.0732 15.8767 17.2758 0
357 1 C 20.213 15.8446 16.1232 0
358 1 C 16.0561 11.8907 15.1946 0
359 1 C 16.8282 11.1769 16.1271 0
360 1 C 16.8274 9.77915 16.1277 0
361 1 C 16.0554 9.06434 15.1953 0
379 1 C 16.0548 16.1224 19.111 0
380 1 C 15.9782 14.973 19.916 0
381 1 C 15.9788 15.0811 21.3095 0
382 1 C 16.0553 15.9543 17.6305 0
385 1 C 16.0561 13.3797 15.2478 0
387 3 N 19.5212 15.8187 15.196 0
388 6 O 20.6391 15.9113 18.5139 0
390 4 O 17.1675 15.8979 17.134 0
392 4 O 17.1682 13.8794 15.266 0
112 1 C 4.63311 16.3407 21.9289 0
210 2 H 4.592 19.9389 17.3545 0
211 2 H 4.58008 22.3798 17.3538 0
216 2 H 4.78638 18.4729 21.5694 0
217 2 H 4.77358 18.2854 19.1362 0
229 1 C 4.63619 24.0584 15.1953 0
232 1 C 4.63563 22.5729 15.1954 0
235 1 C 4.63458 19.7465 15.195 0
236 1 C 4.6131 20.4602 16.4056 0
237 1 C 4.61419 21.8579 16.4056 0
245 1 C 4.70911 17.4896 21.1224 0
246 1 C 4.70967 17.3815 19.7288 0
252 1 C 4.6345 18.2575 15.1418 0
259 4 O 5.74654 17.7578 15.1244 0
261 4 O 3.52241 17.7578 15.1236 0
525 4 O 14.9441 17.7578 15.1236 0
376 1 C 16.0548 16.3407 21.9289 0
474 2 H 16.0137 19.9389 17.3545 0
475 2 H 16.0018 22.3798 17.3538 0
480 2 H 16.2081 18.4729 21.5694 0
481 2 H 16.1953 18.2854 19.1362 0
493 1 C 16.0579 24.0584 15.1953 0
496 1 C 16.0573 22.5729 15.1954 0
499 1 C 16.0563 19.7465 15.195 0
500 1 C 16.0348 20.4602 16.4056 0
501 1 C 16.0359 21.8579 16.4056 0
509 1 C 16.1308 17.4896 21.1224 0
510 1 C 16.1314 17.3815 19.7288 0
516 1 C 16.0562 18.2575 15.1418 0
523 4 O 17.1682 17.7578 15.1244 0
199 8 Zn 3.17167 30.8127 15.1943 0
200 7 Zn 6.10206 30.8127 15.1953 0
201 2 H 1.01937 30.918 18.9683 0
204 2 H 6.01763 26.6921 16.8556 0
205 2 H 6.02637 24.2513 16.8473 0
218 2 H 4.49505 28.9825 19.4696 0
219 2 H 4.48227 29.1727 21.903 0
220 1 C 0.47619 30.8385 16.1179 0
222 1 C 0.00712 30.9073 18.5858 0
226 1 C 4.63685 26.8847 15.1946 0
227 1 C 5.40898 26.171 16.1271 0
228 1 C 5.40809 24.7732 16.1277 0
244 1 C 4.63553 31.3348 21.9289 0
247 1 C 4.63554 31.1165 19.111 0
248 1 C 4.55895 29.967 19.916 0
249 1 C 4.55952 30.0751 21.3095 0
250 1 C 4.63604 30.9484 17.6305 0
253 1 C 4.63683 28.3738 15.2478 0
254 3 N 1.17175 30.8127 15.1935 0
258 4 O 5.74827 30.892 17.134 0
260 4 O 5.74889 28.8735 15.266 0
262 4 O 3.52413 30.892 17.1332 0
264 4 O 3.52476 28.8735 15.2652 0
202 2 H 10.1905 30.9579 20.401 0
221 1 C 11.0327 30.8705 17.2673 0
223 1 C 10.2583 30.9278 19.3218 0
224 1 C 9.65397 30.8708 17.2758 0
225 1 C 8.79373 30.8386 16.1232 0
255 3 N 8.10197 30.8127 15.196 0
256 6 O 9.21982 30.9053 18.5139 0
463 8 Zn 14.5933 30.8127 15.1943 0
465 2 H 12.4411 30.918 18.9683 0
484 1 C 11.8979 30.8385 16.1179 0
486 1 C 11.4288 30.9073 18.5858 0
518 3 N 12.5934 30.8127 15.1935 0
526 4 O 14.9458 30.892 17.1332 0
528 4 O 14.9464 28.8735 15.2652 0
464 7 Zn 17.5237 30.8127 15.1953 0
466 2 H 21.6121 30.9579 20.401 0
468 2 H 17.4393 26.6921 16.8556 0
469 2 H 17.448 24.2513 16.8473 0
482 2 H 15.9167 28.9825 19.4696 0
483 2 H 15.904 29.1727 21.903 0
485 1 C 22.4544 30.8705 17.2673 0
487 1 C 21.68 30.9278 19.3218 0
488 1 C 21.0757 30.8708 17.2758 0
489 1 C 20.2154 30.8386 16.1232 0
490 1 C 16.0585 26.8847 15.1946 0
491 1 C 16.8307 26.171 16.1271 0
492 1 C 16.8298 24.7732 16.1277 0
508 1 C 16.0572 31.3348 21.9289 0
511 1 C 16.0572 31.1165 19.111 0
512 1 C 15.9806 29.967 19.916 0
513 1 C 15.9812 30.0751 21.3095 0
514 1 C 16.0577 30.9484 17.6305 0
517 1 C 16.0585 28.3738 15.2478 0
519 3 N 19.5237 30.8127 15.196 0
520 6 O 20.6415 30.9053 18.5139 0
522 4 O 17.17 30.892 17.134 0
524 4 O 17.1706 28.8735 15.266 0
77 2 H 4.67175 6.10552 27.9854 0
82 2 H 3.3169 3.18482 23.4699 0
83 2 H 3.3267 3.38224 25.9023 0
101 1 C 4.651 8.02417 28.9344 0
102 1 C 4.65103 6.62635 28.9344 0
110 1 C 3.90211 2.48068 24.048 0
111 1 C 3.9016 2.58872 25.4416 0
346 2 H 14.7386 3.18482 23.4699 0
347 2 H 14.7484 3.38224 25.9023 0
341 2 H 16.0934 6.10552 27.9854 0
365 1 C 16.0727 8.02417 28.9344 0
366 1 C 16.0727 6.62635 28.9344 0
374 1 C 15.3238 2.48068 24.048 0
375 1 C 15.3233 2.58872 25.4416 0
74 2 H 3.24061 10.4185 28.4924 0
75 2 H 3.25091 12.8588 28.4834 0
76 2 H 4.68551 8.5459 27.9862 0
80 2 H 5.9369 14.9437 26.1694 0
81 2 H 5.94691 14.7626 23.7353 0
98 1 C 3.85926 10.9401 29.2119 0
99 1 C 3.85928 12.3379 29.2121 0
107 1 C 5.3621 15.6564 25.5912 0
108 1 C 5.36169 15.5477 24.1977 0
338 2 H 14.6623 10.4185 28.4924 0
339 2 H 14.6726 12.8588 28.4834 0
340 2 H 16.1072 8.5459 27.9862 0
344 2 H 17.3586 14.9437 26.1694 0
345 2 H 17.3686 14.7626 23.7353 0
362 1 C 15.2809 10.9401 29.2119 0
363 1 C 15.281 12.3379 29.2121 0
371 1 C 16.7838 15.6564 25.5912 0
372 1 C 16.7834 15.5477 24.1977 0
71 2 H 3.85216 16.2419 29.1997 0
106 1 C 4.63276 16.6753 26.2277 0
109 1 C 4.63312 16.4558 23.4099 0
119 1 C 4.63218 16.8434 27.7082 0
125 4 O 5.74405 16.8998 28.2054 0
131 5 O 3.51991 16.8998 28.2047 0
208 2 H 4.68794 23.54 27.9862 0
209 2 H 4.67417 21.0996 27.9854 0
214 2 H 3.31933 18.1789 23.4699 0
215 2 H 3.32913 18.3763 25.9023 0
233 1 C 4.65342 23.0182 28.9344 0
234 1 C 4.65346 21.6204 28.9344 0
242 1 C 3.90454 17.4747 24.048 0
243 1 C 3.90403 17.5828 25.4416 0
395 5 O 14.9416 16.8998 28.2047 0
478 2 H 14.741 18.1789 23.4699 0
479 2 H 14.7508 18.3763 25.9023 0
335 2 H 15.2738 16.2419 29.1997 0
370 1 C 16.0544 16.6753 26.2277 0
373 1 C 16.0548 16.4558 23.4099 0
383 1 C 16.0539 16.8434 27.7082 0
389 4 O 17.1657 16.8998 28.2054 0
472 2 H 16.1096 23.54 27.9862 0
473 2 H 16.0959 21.0996 27.9854 0
497 1 C 16.0751 23.0182 28.9344 0
498 1 C 16.0752 21.6204 28.9344 0
506 1 C 15.3262 17.4747 24.048 0
507 1 C 15.3257 17.5828 25.4416 0
203 2 H 3.85459 31.236 29.1997 0
206 2 H 3.24303 25.4125 28.4924 0
207 2 H 3.25334 27.8529 28.4834 0
212 2 H 5.93933 29.9378 26.1694 0
213 2 H 5.94933 29.7567 23.7353 0
230 1 C 3.86169 25.9342 29.2119 0
231 1 C 3.8617 27.332 29.2121 0
238 1 C 4.63519 31.6693 26.2277 0
239 1 C 5.36452 30.6504 25.5912 0
240 1 C 5.36412 30.5417 24.1977 0
241 1 C 4.63554 31.4499 23.4099 0
251 1 C 4.6346 31.8375 27.7082 0
257 4 O 5.74647 31.8939 28.2054 0
263 5 O 3.52234 31.8939 28.2047 0
470 2 H 14.6647 25.4125 28.4924 0
471 2 H 14.675 27.8529 28.4834 0
527 5 O 14.944 31.8939 28.2047 0
467 2 H 15.2763 31.236 29.1997 0
476 2 H 17.361 29.9378 26.1694 0
477 2 H 17.371 29.7567 23.7353 0
494 1 C 15.2834 25.9342 29.2119 0
495 1 C 15.2834 27.332 29.2121 0
502 1 C 16.0569 31.6693 26.2277 0
503 1 C 16.7862 30.6504 25.5912 0
504 1 C 16.7858 30.5417 24.1977 0
505 1 C 16.0572 31.4499 23.4099 0
515 1 C 16.0563 31.8375 27.7082 0
521 4 O 17.1682 31.8939 28.2054 0
