Created by Ryther's code on 2025-07-31 16:51:45.449736, modified by xyan11@uic.edu. 

    1152 atoms
    1536 bonds
    3648 angles
    2880 dihedrals
    576 impropers

    6 atom types
    8 bond types
    17 angle types
    4 dihedral types
    3 improper types

0.00000000 22.072 xlo xhi
0.00000000 24.112 ylo yhi
0.00000000 39.122 zlo zhi
0.0 0.0 0.0 xy xz yz 

Masses 

    1    12.0107  #   C
    2    140.116  #  Ce
    3    1.00794  #   H
    4    14.0067  #   N
    5    15.9994  #   O
    6    15.9994  #   O

Pair Coeffs

    1       0.10500      3.43085  #  C_R C_R
    2       0.01300      3.16804  #  Ce8f4 Ce8f4
    3       0.04400      2.57113  #  H_ H_
    4       0.06900      3.26069  #  N_R N_R
    5       0.06000      3.11815  #  O_1 O_1
    6       0.06000      3.11815  #  O_2_M O_2_M

Bond Coeffs

    1     174.47624      2.43663  #  Ce8f4 O_2_M bond order=0.5
    2     164.66213      2.56894  #  Ce8f4 N_R bond order=0.5
    3     357.44038      1.08142  #  C_R H_ bond order=1.0
    4     663.66675      1.34507  #  C_R N_R bond order=1.5
    5     391.66951      1.45800  #  C_R C_R bond order=1.0
    6     462.65505      1.37926  #  C_R C_R bond order=1.5
    7     714.55744      1.26901  #  C_R O_2_M bond order=1.5
    8     706.67500      1.27367  #  C_R O_1 bond order=1.5

Angle Coeffs

    1  fourier                 75.78855      0.34375      0.37500      0.28125  #  N_R Ce8f4 O_2_M
    2  fourier                 74.35697      0.34375      0.37500      0.28125  #  O_2_M Ce8f4 O_2_M
    3  fourier                 77.61295      0.34375      0.37500      0.28125  #  N_R Ce8f4 N_R
    4  cosine/periodic         79.78069           -1            3  #  H_ C_R N_R
    5  cosine/periodic        212.40917           -1            3  #  N_R C_R N_R
    6  cosine/periodic        140.82706           -1            3  #  C_R C_R N_R
    7  cosine/periodic        153.68727           -1            3  #  C_R C_R N_R
    8  cosine/periodic        102.18328           -1            3  #  C_R C_R C_R
    9  cosine/periodic         57.28902           -1            3  #  C_R C_R H_
    10 cosine/periodic        111.29751           -1            3  #  C_R C_R C_R
    11 cosine/periodic        137.71425           -1            3  #  C_R C_R O_2_M
    12 cosine/periodic        206.77843           -1            3  #  O_2_M C_R O_2_M
    13 cosine/periodic        137.04263           -1            3  #  C_R C_R O_1
    14 cosine/periodic        205.62388           -1            3  #  O_1 C_R O_2_M
    15 cosine/periodic         59.32106           -1            3  #  C_R N_R Ce8f4
    16 cosine/periodic        120.00052           -1            3  #  C_R N_R C_R
    17 cosine/periodic         69.76539           -1            3  #  C_R O_2_M Ce8f4

Dihedral Coeffs

    1       3.36856           -1            2  #  X C_R N_R X bond order=1.5
    2       1.25000           -1            2  #  X C_R C_R X bond order=1.0
    3       3.36856           -1            2  #  X C_R C_R X bond order=1.5
    4       6.73711           -1            2  #  X C_R O_2_M X bond order=1.5

Improper Coeffs

    1       2.00000      1.00000     -1.00000      0.00000            1  #  C_R X X X O_2 present=False
    2      16.66667      1.00000     -1.00000      0.00000            1  #  C_R X X X O_2 present=True
    3       2.00000      1.00000     -1.00000      0.00000            1  #  N_R X X X O_2 present=False

Atoms # a, b, c, alpha, beta, gamma: 22.0720000000, 24.1120000000, 39.1220000000, 90.0000000000, 90.0000000000, 90.0000000000 $$$atoms$$$

    1 1     2      0.00000      4.02053     10.12909     17.19001   #   Ce1   0.18215500   0.42008500   0.43939500
    2 1     2      0.00000      9.74137      0.24968     12.99711   #   Ce2   0.44134500   0.01035500   0.33222000
    3 1     2      0.00000      7.01547      1.92691      7.40951   #   Ce3   0.31784500   0.07991500   0.18939500
    4 1     2      0.00000      1.29463     11.80632      3.21661   #   Ce4   0.05865500   0.48964500   0.08222000
    5 1     2      0.00000      1.49747      4.10109     17.19001   #   Ce5   0.06784500   0.17008500   0.43939500
    6 1     2      0.00000      6.81263      6.27768     12.99711   #   Ce6   0.30865500   0.26035500   0.33222000
    7 1     2      0.00000      9.53853      7.95491      7.40951   #   Ce7   0.43215500   0.32991500   0.18939500
    8 1     2      0.00000      4.22337      5.77832      3.21661   #   Ce8   0.19134500   0.23964500   0.08222000
    9 1     3      0.00000      1.69292     11.93423     15.06001   #    H1   0.07670000   0.49495000   0.38495000
   10 1     3      0.00000      2.96427      8.87080     11.96351   #    H2   0.13430000   0.36790000   0.30580000
   11 1     3      0.00000      6.95378     10.84196     15.01698   #    H3   0.31505000   0.44965000   0.38385000
   12 1     3      0.00000      5.44185      3.05258     15.21846   #    H4   0.24655000   0.12660000   0.38900000
   13 1     3      0.00000      9.34308      0.12177      5.27951   #    H5   0.42330000   0.00505000   0.13495000
   14 1     3      0.00000      8.07173      3.18520      2.18301   #    H6   0.36570000   0.13210000   0.05580000
   15 1     3      0.00000      4.08222      1.21404      5.23648   #    H7   0.18495000   0.05035000   0.13385000
   16 1     3      0.00000      5.59415      9.00342      5.43796   #    H8   0.25345000   0.37340000   0.13900000
   17 1     3      0.00000      3.82508      5.90623     15.06001   #    H9   0.17330000   0.24495000   0.38495000
   18 1     3      0.00000      2.55373      2.84280     11.96351   #   H10   0.11570000   0.11790000   0.30580000
   19 1     3      0.00000      9.60022      4.81396     15.01698   #   H11   0.43495000   0.19965000   0.38385000
   20 1     3      0.00000      0.07615      9.08058     15.21846   #   H12   0.00345000   0.37660000   0.38900000
   21 1     3      0.00000      7.21092      6.14977      5.27951   #   H13   0.32670000   0.25505000   0.13495000
   22 1     3      0.00000      8.48227      9.21320      2.18301   #   H14   0.38430000   0.38210000   0.05580000
   23 1     3      0.00000      1.43578      7.24204      5.23648   #   H15   0.06505000   0.30035000   0.13385000
   24 1     3      0.00000     10.95985      2.97542      5.43796   #   H16   0.49655000   0.12340000   0.13900000
   25 1     1      0.00000      1.92137     11.27477     14.44580   #    C1   0.08705000   0.46760000   0.36925000
   26 1     1      0.00000      1.51524     10.21746     12.45644   #    C2   0.06865000   0.42375000   0.31840000
   27 1     1      0.00000      2.67844      9.46999     12.61489   #    C3   0.12135000   0.39275000   0.32245000
   28 1     1      0.00000      3.38916      9.65686     13.78268   #    C4   0.15355000   0.40050000   0.35230000
   29 1     1      0.00000      4.57442      8.75145     14.13087   #    C5   0.20725000   0.36295000   0.36120000
   30 1     1      0.00000      0.60036      9.97272     11.26714   #    C6   0.02720000   0.41360000   0.28800000
   31 1     1      0.00000      6.64036     11.71723     15.04241   #    C7   0.30085000   0.48595000   0.38450000
   32 1     1      0.00000      6.90081      1.84216     14.47123   #    C8   0.31265000   0.07640000   0.36990000
   33 1     1      0.00000      5.73982      2.17370     15.15586   #    C9   0.26005000   0.09015000   0.38740000
   34 1     1      0.00000      5.05670      1.13929     15.73096   #   C10   0.22910000   0.04725000   0.40210000
   35 1     1      0.00000      3.75224      1.36956     16.48014   #   C11   0.17000000   0.05680000   0.42125000
   36 1     1      0.00000      7.75831      2.92599     13.80029   #   C12   0.35150000   0.12135000   0.35275000
   37 1     1      0.00000      9.06607      1.39729      9.98002   #   C13   0.41075000   0.05795000   0.25510000
   38 1     1      0.00000      7.72741      0.76435     10.42210   #   C14   0.35010000   0.03170000   0.26640000
   39 1     1      0.00000      9.11463      0.78123      4.66530   #   C15   0.41295000   0.03240000   0.11925000
   40 1     1      0.00000      9.52076      1.83854      2.67594   #   C16   0.43135000   0.07625000   0.06840000
   41 1     1      0.00000      8.35756      2.58601      2.83439   #   C17   0.37865000   0.10725000   0.07245000
   42 1     1      0.00000      7.64684      2.39914      4.00218   #   C18   0.34645000   0.09950000   0.10230000
   43 1     1      0.00000      6.46158      3.30455      4.35037   #   C19   0.29275000   0.13705000   0.11120000
   44 1     1      0.00000     10.43564      2.08328      1.48664   #   C20   0.47280000   0.08640000   0.03800000
   45 1     1      0.00000      4.39564      0.33877      5.26191   #   C21   0.19915000   0.01405000   0.13450000
   46 1     1      0.00000      4.13519     10.21384      4.69073   #   C22   0.18735000   0.42360000   0.11990000
   47 1     1      0.00000      5.29618      9.88230      5.37536   #   C23   0.23995000   0.40985000   0.13740000
   48 1     1      0.00000      5.97930     10.91671      5.95046   #   C24   0.27090000   0.45275000   0.15210000
   49 1     1      0.00000      7.28376     10.68644      6.69964   #   C25   0.33000000   0.44320000   0.17125000
   50 1     1      0.00000      3.27769      9.13001      4.01979   #   C26   0.14850000   0.37865000   0.10275000
   51 1     1      0.00000      1.96993     10.65871      0.19952   #   C27   0.08925000   0.44205000   0.00510000
   52 1     1      0.00000      3.30859     11.29165      0.64160   #   C28   0.14990000   0.46830000   0.01640000
   53 1     1      0.00000      3.59663      5.24677     14.44580   #   C29   0.16295000   0.21760000   0.36925000
   54 1     1      0.00000      4.00276      4.18946     12.45644   #   C30   0.18135000   0.17375000   0.31840000
   55 1     1      0.00000      2.83956      3.44199     12.61489   #   C31   0.12865000   0.14275000   0.32245000
   56 1     1      0.00000      2.12884      3.62886     13.78268   #   C32   0.09645000   0.15050000   0.35230000
   57 1     1      0.00000      0.94358      2.72345     14.13087   #   C33   0.04275000   0.11295000   0.36120000
   58 1     1      0.00000      4.91764      3.94472     11.26714   #   C34   0.22280000   0.16360000   0.28800000
   59 1     1      0.00000      9.91364      5.68923     15.04241   #   C35   0.44915000   0.23595000   0.38450000
   60 1     1      0.00000      9.65319      7.87016     14.47123   #   C36   0.43735000   0.32640000   0.36990000
   61 1     1      0.00000     10.81418      8.20170     15.15586   #   C37   0.48995000   0.34015000   0.38740000
   62 1     1      0.00000      0.46130      7.16729     15.73096   #   C38   0.02090000   0.29725000   0.40210000
   63 1     1      0.00000      1.76576      7.39756     16.48014   #   C39   0.08000000   0.30680000   0.42125000
   64 1     1      0.00000      8.79569      8.95399     13.80029   #   C40   0.39850000   0.37135000   0.35275000
   65 1     1      0.00000      7.48793      7.42529      9.98002   #   C41   0.33925000   0.30795000   0.25510000
   66 1     1      0.00000      8.82659      6.79235     10.42210   #   C42   0.39990000   0.28170000   0.26640000
   67 1     1      0.00000      7.43937      6.80923      4.66530   #   C43   0.33705000   0.28240000   0.11925000
   68 1     1      0.00000      7.03324      7.86654      2.67594   #   C44   0.31865000   0.32625000   0.06840000
   69 1     1      0.00000      8.19644      8.61401      2.83439   #   C45   0.37135000   0.35725000   0.07245000
   70 1     1      0.00000      8.90716      8.42714      4.00218   #   C46   0.40355000   0.34950000   0.10230000
   71 1     1      0.00000     10.09242      9.33255      4.35037   #   C47   0.45725000   0.38705000   0.11120000
   72 1     1      0.00000      6.11836      8.11128      1.48664   #   C48   0.27720000   0.33640000   0.03800000
   73 1     1      0.00000      1.12236      6.36677      5.26191   #   C49   0.05085000   0.26405000   0.13450000
   74 1     1      0.00000      1.38281      4.18584      4.69073   #   C50   0.06265000   0.17360000   0.11990000
   75 1     1      0.00000      0.22182      3.85430      5.37536   #   C51   0.01005000   0.15985000   0.13740000
   76 1     1      0.00000     10.57470      4.88871      5.95046   #   C52   0.47910000   0.20275000   0.15210000
   77 1     1      0.00000      9.27024      4.65844      6.69964   #   C53   0.42000000   0.19320000   0.17125000
   78 1     1      0.00000      2.24031      3.10201      4.01979   #   C54   0.10150000   0.12865000   0.10275000
   79 1     1      0.00000      3.54807      4.63071      0.19952   #   C55   0.16075000   0.19205000   0.00510000
   80 1     1      0.00000      2.20941      5.26365      0.64160   #   C56   0.10010000   0.21830000   0.01640000
   81 1     4      0.00000      3.02607     10.55141     14.69031   #    N1   0.13710000   0.43760000   0.37550000
   82 1     4      0.00000      1.12236     11.11563     13.37386   #    N2   0.05085000   0.46100000   0.34185000
   83 1     4      0.00000      5.51248     11.94147     15.72900   #    N3   0.24975000   0.49525000   0.40205000
   84 1     4      0.00000      7.34998      0.57025     14.39690   #    N4   0.33300000   0.02365000   0.36800000
   85 1     4      0.00000      8.00993      1.50459      4.90981   #    N5   0.36290000   0.06240000   0.12550000
   86 1     4      0.00000      9.91364      0.94037      3.59336   #    N6   0.44915000   0.03900000   0.09185000
   87 1     4      0.00000      5.52352      0.11453      5.94850   #    N7   0.25025000   0.00475000   0.15205000
   88 1     4      0.00000      3.68602     11.48575      4.61640   #    N8   0.16700000   0.47635000   0.11800000
   89 1     4      0.00000      2.49193      4.52341     14.69031   #    N9   0.11290000   0.18760000   0.37550000
   90 1     4      0.00000      4.39564      5.08763     13.37386   #   N10   0.19915000   0.21100000   0.34185000
   91 1     4      0.00000      0.00552      5.91347     15.72900   #   N11   0.00025000   0.24525000   0.40205000
   92 1     4      0.00000      9.20402      6.59825     14.39690   #   N12   0.41700000   0.27365000   0.36800000
   93 1     4      0.00000      8.54407      7.53259      4.90981   #   N13   0.38710000   0.31240000   0.12550000
   94 1     4      0.00000      6.64036      6.96837      3.59336   #   N14   0.30085000   0.28900000   0.09185000
   95 1     4      0.00000     11.03048      6.14253      5.94850   #   N15   0.49975000   0.25475000   0.15205000
   96 1     4      0.00000      1.83198      5.45775      4.61640   #   N16   0.08300000   0.22635000   0.11800000
   97 1     6      0.00000      5.02911      8.87563     15.28888   #    O1   0.22785000   0.36810000   0.39080000
   98 1     6      0.00000      4.95958      7.95455     13.25062   #    O2   0.22470000   0.32990000   0.33870000
   99 1     6      0.00000     10.58904     10.71537     11.22019   #    O3   0.47975000   0.44440000   0.28680000
  100 1     5      0.00000      0.94910      9.14206     10.47100   #    O4   0.04300000   0.37915000   0.26765000
  101 1     6      0.00000      3.21368      0.40629     17.08262   #    O5   0.14560000   0.01685000   0.43665000
  102 1     6      0.00000      3.26555      2.53538     16.35691   #    O6   0.14795000   0.10515000   0.41810000
  103 1     6      0.00000      8.81887      2.55346     13.24475   #    O7   0.39955000   0.10590000   0.33855000
  104 1     6      0.00000      7.34887      4.08819     13.86679   #    O8   0.33295000   0.16955000   0.35445000
  105 1     6      0.00000      9.11243      1.82648      8.78485   #    O9   0.41285000   0.07575000   0.22455000
  106 1     6      0.00000     10.01407      1.41899     10.80158   #   O10   0.45370000   0.05885000   0.27610000
  107 1     6      0.00000      6.74079      0.93796      9.68856   #   O11   0.30540000   0.03890000   0.24765000
  108 1     6      0.00000      7.77928      0.11212     11.49796   #   O12   0.35245000   0.00465000   0.29390000
  109 1     6      0.00000      6.00689      3.18037      5.50838   #   O13   0.27215000   0.13190000   0.14080000
  110 1     6      0.00000      6.07642      4.10145      3.47012   #   O14   0.27530000   0.17010000   0.08870000
  111 1     6      0.00000      0.44696      1.34063      1.43969   #   O15   0.02025000   0.05560000   0.03680000
  112 1     5      0.00000     10.08690      2.91394      0.69050   #   O16   0.45700000   0.12085000   0.01765000
  113 1     6      0.00000      7.82232     11.64971      7.30212   #   O17   0.35440000   0.48315000   0.18665000
  114 1     6      0.00000      7.77045      9.52062      6.57641   #   O18   0.35205000   0.39485000   0.16810000
  115 1     6      0.00000      2.21713      9.50254      3.46425   #   O19   0.10045000   0.39410000   0.08855000
  116 1     6      0.00000      3.68713      7.96781      4.08629   #   O20   0.16705000   0.33045000   0.10445000
  117 1     6      0.00000      1.92357     10.22952     18.56535   #   O21   0.08715000   0.42425000   0.47455000
  118 1     6      0.00000      1.02193     10.63701      1.02108   #   O22   0.04630000   0.44115000   0.02610000
  119 1     6      0.00000      4.29521     11.11804     19.46906   #   O23   0.19460000   0.46110000   0.49765000
  120 1     6      0.00000      3.25672     11.94388      1.71746   #   O24   0.14755000   0.49535000   0.04390000
  121 1     6      0.00000      0.48889      2.84763     15.28888   #   O25   0.02215000   0.11810000   0.39080000
  122 1     6      0.00000      0.55842      1.92655     13.25062   #   O26   0.02530000   0.07990000   0.33870000
  123 1     6      0.00000      5.96496      4.68737     11.22019   #   O27   0.27025000   0.19440000   0.28680000
  124 1     5      0.00000      4.56890      3.11406     10.47100   #   O28   0.20700000   0.12915000   0.26765000
  125 1     6      0.00000      2.30432      6.43429     17.08262   #   O29   0.10440000   0.26685000   0.43665000
  126 1     6      0.00000      2.25245      8.56338     16.35691   #   O30   0.10205000   0.35515000   0.41810000
  127 1     6      0.00000      7.73513      8.58146     13.24475   #   O31   0.35045000   0.35590000   0.33855000
  128 1     6      0.00000      9.20513     10.11619     13.86679   #   O32   0.41705000   0.41955000   0.35445000
  129 1     6      0.00000      7.44157      7.85448      8.78485   #   O33   0.33715000   0.32575000   0.22455000
  130 1     6      0.00000      6.53993      7.44699     10.80158   #   O34   0.29630000   0.30885000   0.27610000
  131 1     6      0.00000      9.81321      6.96596      9.68856   #   O35   0.44460000   0.28890000   0.24765000
  132 1     6      0.00000      8.77472      6.14012     11.49796   #   O36   0.39755000   0.25465000   0.29390000
  133 1     6      0.00000     10.54711      9.20837      5.50838   #   O37   0.47785000   0.38190000   0.14080000
  134 1     6      0.00000     10.47758     10.12945      3.47012   #   O38   0.47470000   0.42010000   0.08870000
  135 1     6      0.00000      5.07104      7.36863      1.43969   #   O39   0.22975000   0.30560000   0.03680000
  136 1     5      0.00000      6.46710      8.94194      0.69050   #   O40   0.29300000   0.37085000   0.01765000
  137 1     6      0.00000      8.73168      5.62171      7.30212   #   O41   0.39560000   0.23315000   0.18665000
  138 1     6      0.00000      8.78355      3.49262      6.57641   #   O42   0.39795000   0.14485000   0.16810000
  139 1     6      0.00000      3.30087      3.47454      3.46425   #   O43   0.14955000   0.14410000   0.08855000
  140 1     6      0.00000      1.83087      1.93981      4.08629   #   O44   0.08295000   0.08045000   0.10445000
  141 1     6      0.00000      3.59443      4.20152     18.56535   #   O45   0.16285000   0.17425000   0.47455000
  142 1     6      0.00000      4.49607      4.60901      1.02108   #   O46   0.20370000   0.19115000   0.02610000
  143 1     6      0.00000      1.22279      5.09004     19.46906   #   O47   0.05540000   0.21110000   0.49765000
  144 1     6      0.00000      2.26128      5.91588      1.71746   #   O48   0.10245000   0.24535000   0.04390000
  145 1     2      0.00000      4.02053     10.12909     36.75101   #   Ce1   0.18215500   0.42008500   0.93939500
  146 1     2      0.00000      9.74137      0.24968     32.55811   #   Ce2   0.44134500   0.01035500   0.83222000
  147 1     2      0.00000      7.01547      1.92691     26.97051   #   Ce3   0.31784500   0.07991500   0.68939500
  148 1     2      0.00000      1.29463     11.80632     22.77761   #   Ce4   0.05865500   0.48964500   0.58222000
  149 1     2      0.00000      1.49747      4.10109     36.75101   #   Ce5   0.06784500   0.17008500   0.93939500
  150 1     2      0.00000      6.81263      6.27768     32.55811   #   Ce6   0.30865500   0.26035500   0.83222000
  151 1     2      0.00000      9.53853      7.95491     26.97051   #   Ce7   0.43215500   0.32991500   0.68939500
  152 1     2      0.00000      4.22337      5.77832     22.77761   #   Ce8   0.19134500   0.23964500   0.58222000
  153 1     3      0.00000      1.69292     11.93423     34.62101   #    H1   0.07670000   0.49495000   0.88495000
  154 1     3      0.00000      2.96427      8.87080     31.52451   #    H2   0.13430000   0.36790000   0.80580000
  155 1     3      0.00000      6.95378     10.84196     34.57798   #    H3   0.31505000   0.44965000   0.88385000
  156 1     3      0.00000      5.44185      3.05258     34.77946   #    H4   0.24655000   0.12660000   0.88900000
  157 1     3      0.00000      9.34308      0.12177     24.84051   #    H5   0.42330000   0.00505000   0.63495000
  158 1     3      0.00000      8.07173      3.18520     21.74401   #    H6   0.36570000   0.13210000   0.55580000
  159 1     3      0.00000      4.08222      1.21404     24.79748   #    H7   0.18495000   0.05035000   0.63385000
  160 1     3      0.00000      5.59415      9.00342     24.99896   #    H8   0.25345000   0.37340000   0.63900000
  161 1     3      0.00000      3.82508      5.90623     34.62101   #    H9   0.17330000   0.24495000   0.88495000
  162 1     3      0.00000      2.55373      2.84280     31.52451   #   H10   0.11570000   0.11790000   0.80580000
  163 1     3      0.00000      9.60022      4.81396     34.57798   #   H11   0.43495000   0.19965000   0.88385000
  164 1     3      0.00000      0.07615      9.08058     34.77946   #   H12   0.00345000   0.37660000   0.88900000
  165 1     3      0.00000      7.21092      6.14977     24.84051   #   H13   0.32670000   0.25505000   0.63495000
  166 1     3      0.00000      8.48227      9.21320     21.74401   #   H14   0.38430000   0.38210000   0.55580000
  167 1     3      0.00000      1.43578      7.24204     24.79748   #   H15   0.06505000   0.30035000   0.63385000
  168 1     3      0.00000     10.95985      2.97542     24.99896   #   H16   0.49655000   0.12340000   0.63900000
  169 1     1      0.00000      1.92137     11.27477     34.00680   #    C1   0.08705000   0.46760000   0.86925000
  170 1     1      0.00000      1.51524     10.21746     32.01744   #    C2   0.06865000   0.42375000   0.81840000
  171 1     1      0.00000      2.67844      9.46999     32.17589   #    C3   0.12135000   0.39275000   0.82245000
  172 1     1      0.00000      3.38916      9.65686     33.34368   #    C4   0.15355000   0.40050000   0.85230000
  173 1     1      0.00000      4.57442      8.75145     33.69187   #    C5   0.20725000   0.36295000   0.86120000
  174 1     1      0.00000      0.60036      9.97272     30.82814   #    C6   0.02720000   0.41360000   0.78800000
  175 1     1      0.00000      6.64036     11.71723     34.60341   #    C7   0.30085000   0.48595000   0.88450000
  176 1     1      0.00000      6.90081      1.84216     34.03223   #    C8   0.31265000   0.07640000   0.86990000
  177 1     1      0.00000      5.73982      2.17370     34.71686   #    C9   0.26005000   0.09015000   0.88740000
  178 1     1      0.00000      5.05670      1.13929     35.29196   #   C10   0.22910000   0.04725000   0.90210000
  179 1     1      0.00000      3.75224      1.36956     36.04114   #   C11   0.17000000   0.05680000   0.92125000
  180 1     1      0.00000      7.75831      2.92599     33.36129   #   C12   0.35150000   0.12135000   0.85275000
  181 1     1      0.00000      9.06607      1.39729     29.54102   #   C13   0.41075000   0.05795000   0.75510000
  182 1     1      0.00000      7.72741      0.76435     29.98310   #   C14   0.35010000   0.03170000   0.76640000
  183 1     1      0.00000      9.11463      0.78123     24.22630   #   C15   0.41295000   0.03240000   0.61925000
  184 1     1      0.00000      9.52076      1.83854     22.23694   #   C16   0.43135000   0.07625000   0.56840000
  185 1     1      0.00000      8.35756      2.58601     22.39539   #   C17   0.37865000   0.10725000   0.57245000
  186 1     1      0.00000      7.64684      2.39914     23.56318   #   C18   0.34645000   0.09950000   0.60230000
  187 1     1      0.00000      6.46158      3.30455     23.91137   #   C19   0.29275000   0.13705000   0.61120000
  188 1     1      0.00000     10.43564      2.08328     21.04764   #   C20   0.47280000   0.08640000   0.53800000
  189 1     1      0.00000      4.39564      0.33877     24.82291   #   C21   0.19915000   0.01405000   0.63450000
  190 1     1      0.00000      4.13519     10.21384     24.25173   #   C22   0.18735000   0.42360000   0.61990000
  191 1     1      0.00000      5.29618      9.88230     24.93636   #   C23   0.23995000   0.40985000   0.63740000
  192 1     1      0.00000      5.97930     10.91671     25.51146   #   C24   0.27090000   0.45275000   0.65210000
  193 1     1      0.00000      7.28376     10.68644     26.26064   #   C25   0.33000000   0.44320000   0.67125000
  194 1     1      0.00000      3.27769      9.13001     23.58079   #   C26   0.14850000   0.37865000   0.60275000
  195 1     1      0.00000      1.96993     10.65871     19.76052   #   C27   0.08925000   0.44205000   0.50510000
  196 1     1      0.00000      3.30859     11.29165     20.20260   #   C28   0.14990000   0.46830000   0.51640000
  197 1     1      0.00000      3.59663      5.24677     34.00680   #   C29   0.16295000   0.21760000   0.86925000
  198 1     1      0.00000      4.00276      4.18946     32.01744   #   C30   0.18135000   0.17375000   0.81840000
  199 1     1      0.00000      2.83956      3.44199     32.17589   #   C31   0.12865000   0.14275000   0.82245000
  200 1     1      0.00000      2.12884      3.62886     33.34368   #   C32   0.09645000   0.15050000   0.85230000
  201 1     1      0.00000      0.94358      2.72345     33.69187   #   C33   0.04275000   0.11295000   0.86120000
  202 1     1      0.00000      4.91764      3.94472     30.82814   #   C34   0.22280000   0.16360000   0.78800000
  203 1     1      0.00000      9.91364      5.68923     34.60341   #   C35   0.44915000   0.23595000   0.88450000
  204 1     1      0.00000      9.65319      7.87016     34.03223   #   C36   0.43735000   0.32640000   0.86990000
  205 1     1      0.00000     10.81418      8.20170     34.71686   #   C37   0.48995000   0.34015000   0.88740000
  206 1     1      0.00000      0.46130      7.16729     35.29196   #   C38   0.02090000   0.29725000   0.90210000
  207 1     1      0.00000      1.76576      7.39756     36.04114   #   C39   0.08000000   0.30680000   0.92125000
  208 1     1      0.00000      8.79569      8.95399     33.36129   #   C40   0.39850000   0.37135000   0.85275000
  209 1     1      0.00000      7.48793      7.42529     29.54102   #   C41   0.33925000   0.30795000   0.75510000
  210 1     1      0.00000      8.82659      6.79235     29.98310   #   C42   0.39990000   0.28170000   0.76640000
  211 1     1      0.00000      7.43937      6.80923     24.22630   #   C43   0.33705000   0.28240000   0.61925000
  212 1     1      0.00000      7.03324      7.86654     22.23694   #   C44   0.31865000   0.32625000   0.56840000
  213 1     1      0.00000      8.19644      8.61401     22.39539   #   C45   0.37135000   0.35725000   0.57245000
  214 1     1      0.00000      8.90716      8.42714     23.56318   #   C46   0.40355000   0.34950000   0.60230000
  215 1     1      0.00000     10.09242      9.33255     23.91137   #   C47   0.45725000   0.38705000   0.61120000
  216 1     1      0.00000      6.11836      8.11128     21.04764   #   C48   0.27720000   0.33640000   0.53800000
  217 1     1      0.00000      1.12236      6.36677     24.82291   #   C49   0.05085000   0.26405000   0.63450000
  218 1     1      0.00000      1.38281      4.18584     24.25173   #   C50   0.06265000   0.17360000   0.61990000
  219 1     1      0.00000      0.22182      3.85430     24.93636   #   C51   0.01005000   0.15985000   0.63740000
  220 1     1      0.00000     10.57470      4.88871     25.51146   #   C52   0.47910000   0.20275000   0.65210000
  221 1     1      0.00000      9.27024      4.65844     26.26064   #   C53   0.42000000   0.19320000   0.67125000
  222 1     1      0.00000      2.24031      3.10201     23.58079   #   C54   0.10150000   0.12865000   0.60275000
  223 1     1      0.00000      3.54807      4.63071     19.76052   #   C55   0.16075000   0.19205000   0.50510000
  224 1     1      0.00000      2.20941      5.26365     20.20260   #   C56   0.10010000   0.21830000   0.51640000
  225 1     4      0.00000      3.02607     10.55141     34.25131   #    N1   0.13710000   0.43760000   0.87550000
  226 1     4      0.00000      1.12236     11.11563     32.93486   #    N2   0.05085000   0.46100000   0.84185000
  227 1     4      0.00000      5.51248     11.94147     35.29000   #    N3   0.24975000   0.49525000   0.90205000
  228 1     4      0.00000      7.34998      0.57025     33.95790   #    N4   0.33300000   0.02365000   0.86800000
  229 1     4      0.00000      8.00993      1.50459     24.47081   #    N5   0.36290000   0.06240000   0.62550000