Created by Ryther's code on 2025-08-05 17:25:31.415926, modified by xyan11@uic.edu. 

    736 atoms
    840 bonds
    1552 angles
    1704 dihedrals
    336 impropers

    11 atom types
    24 bond types
    44 angle types
    12 dihedral types
    3 improper types

0.00000000 42.69609093 xlo xhi
0.00000000 35.13407069 ylo yhi
0.00000000 34.28273949 zlo zhi
-0.32937233 -0.62675849 2.25683604 xy xz yz 

Masses 

    1    12.0107  #   C
    2    12.0107  #   C
    3    1.00794  #   H
    4    14.0067  #   N
    5    14.0067  #   N
    6    15.9994  #   O
    7    15.9994  #   O
    8    15.9994  #   O
    9    15.9994  #   O
   10      65.38  #  Zn
   11      65.38  #  Zn

Pair Coeffs

    1       0.10500      3.43085  #  C_2 C_2
    2       0.10500      3.43085  #  C_R C_R
    3       0.04400      2.57113  #  H_ H_
    4       0.06900      3.26069  #  N_2 N_2
    5       0.06900      3.26069  #  N_3 N_3
    6       0.06000      3.11815  #  O_1 O_1
    7       0.06000      3.11815  #  O_2_M O_2_M
    8       0.06000      3.11815  #  O_3_M O_3_M
    9       0.06000      3.11815  #  O_R O_R
    10      0.12400      2.46155  #  Zn4+2 Zn4+2
    11      0.04000      2.67270  #  Zn8f4 Zn8f4

Bond Coeffs

    1      43.32822      2.51269  #  O_2_M Zn8f4 bond order=0.5
    2      43.57940      2.59350  #  N_2 Zn8f4 bond order=0.5
    3      18.86555      2.24262  #  H_ Zn8f4 bond order=0.5
    4     103.61325      2.20128  #  N_2 Zn4+2 bond order=0.5
    5     104.44141      2.12294  #  O_2_M Zn4+2 bond order=0.5
    6     100.76218      2.14847  #  O_3_M Zn4+2 bond order=0.5
    7      48.90184      1.84943  #  H_ Zn4+2 bond order=0.5
    8     357.44038      1.08142  #  C_R H_ bond order=1.0
    9     559.99521      0.99025  #  H_ O_3_M bond order=1.0
    10    551.23488      1.02947  #  H_ N_2 bond order=1.0
    11    527.90376      1.04442  #  H_ N_3 bond order=1.0
    12    462.65505      1.37926  #  C_R C_R bond order=1.5
    13    931.53598      1.20133  #  C_R N_2 bond order=3.0
    14    391.66951      1.45800  #  C_R C_R bond order=1.0
    15    706.67500      1.27367  #  C_R O_1 bond order=1.5
    16    646.62465      1.31194  #  C_R O_R bond order=1.5
    17    545.99778      1.38804  #  C_R O_R bond order=1.0
    18    629.58965      1.24464  #  C_R C_R bond order=3.0
    19    389.26171      1.46100  #  C_2 C_R bond order=1.0
    20    769.38234      1.28041  #  C_2 N_2 bond order=2.0
    21    556.75624      1.42618  #  C_2 N_3 bond order=1.0
    22    560.26893      1.42319  #  C_R N_3 bond order=1.0
    23    714.55744      1.26901  #  C_R O_2_M bond order=1.5
    24    678.02790      1.29140  #  C_R O_3_M bond order=1.5

Angle Coeffs

    1  fourier                 67.80662      0.34375      0.37500      0.28125  #  O_2_M Zn8f4 O_2_M
    2  fourier                 71.45583      0.34375      0.37500      0.28125  #  N_2 Zn8f4 O_2_M
    3  fourier                 24.62448      0.34375      0.37500      0.28125  #  H_ Zn8f4 O_2_M
    4  fourier                 25.79329      0.34375      0.37500      0.28125  #  H_ Zn8f4 N_2
    5  cosine/periodic        101.82219            1            4  #  N_2 Zn4+2 O_2_M
    6  cosine/periodic        100.10309            1            4  #  N_2 Zn4+2 O_3_M
    7  cosine/periodic         37.39156            1            4  #  H_ Zn4+2 N_2
    8  cosine/periodic         97.36576            1            4  #  O_2_M Zn4+2 O_2_M
    9  cosine/periodic         95.61832            1            4  #  O_2_M Zn4+2 O_3_M
    10 cosine/periodic         36.20045            1            4  #  H_ Zn4+2 O_2_M
    11 cosine/periodic         93.93580            1            4  #  O_3_M Zn4+2 O_3_M
    12 cosine/periodic         35.40556            1            4  #  H_ Zn4+2 O_3_M
    13 cosine/periodic         14.11273            1            4  #  H_ Zn4+2 H_
    14 cosine/periodic         43.63912            1            1  #  O_3_M H_ Zn4+2
    15 cosine/periodic        179.74893           -1            3  #  C_R C_R N_2
    16 cosine/periodic        111.29751           -1            3  #  C_R C_R C_R
    17 cosine/periodic         57.28902           -1            3  #  C_R C_R H_
    18 cosine/periodic        102.18328           -1            3  #  C_R C_R C_R
    19 cosine/periodic        137.04263           -1            3  #  C_R C_R O_1
    20 cosine/periodic        131.74425           -1            3  #  C_R C_R O_R
    21 cosine/periodic        195.47893           -1            3  #  O_1 C_R O_R
    22 cosine/periodic        132.59925           -1            3  #  C_R C_R O_R
    23 cosine/periodic        128.87921           -1            3  #  C_R C_R C_R
    24 cosine/periodic        101.85214           -1            3  #  C_2 C_R C_R
    25 cosine/periodic        150.01499           -1            3  #  C_R C_2 N_2
    26 cosine/periodic        129.12258           -1            3  #  C_R C_2 N_3
    27 cosine/periodic        207.77674           -1            3  #  N_2 C_2 N_3
    28 cosine/periodic        141.17366           -1            3  #  C_R C_R N_3
    29 cosine/periodic        137.71425           -1            3  #  C_R C_R O_2_M
    30 cosine/periodic        206.77843           -1            3  #  O_2_M C_R O_2_M
    31 cosine/periodic        201.38050           -1            3  #  O_2_M C_R O_3_M
    32 cosine/periodic        134.57449           -1            3  #  C_R C_R O_3_M
    33 fourier                 38.69249      0.36401      0.41847      0.28800  #  C_R N_2 Zn8f4
    34 fourier                 84.89470      0.36401      0.41847      0.28800  #  C_R N_2 Zn4+2
    35 fourier                168.31910      0.36401      0.41847      0.28800  #  C_2 N_2 H_
    36 fourier                149.93235      0.31751      0.31322      0.27250  #  C_2 N_3 H_
    37 fourier                150.57460      0.31751      0.31322      0.27250  #  C_R N_3 H_
    38 fourier                275.63277      0.31751      0.31322      0.27250  #  C_2 N_3 C_R
    39 fourier                295.63447      0.35263      0.39441      0.28421  #  C_R O_R C_R
    40 fourier                 41.31289      0.30023      0.26733      0.26675  #  H_ O_3_M Zn4+2
    41 fourier                 99.02913      0.30023      0.26733      0.26675  #  C_R O_3_M Zn4+2
    42 fourier                203.65891      0.30023      0.26733      0.26675  #  C_R O_3_M H_
    43 cosine/periodic         37.72922           -1            3  #  C_R O_2_M Zn4+2
    44 cosine/periodic         17.67091           -1            3  #  C_R O_2_M Zn8f4

Dihedral Coeffs

    1       6.73711           -1            2  #  X C_R C_R X bond order=1.5
    2      27.96100           -1            2  #  X C_R N_2 X bond order=3.0
    3       1.25000           -1            2  #  X C_R C_R X bond order=1.0
    4       6.73711           -1            2  #  X C_R O_R X bond order=1.5
    5       2.50000           -1            2  #  X C_R O_R X bond order=1.0
    6      27.96100           -1            2  #  X C_R C_R X bond order=3.0
    7       1.25000           -1            2  #  X C_2 C_R X bond order=1.0
    8       9.74339           -1            2  #  X C_2 N_2 X bond order=2.0
    9       0.25000           -1            6  #  X C_2 N_3 X bond order=1.0
    10      0.25000           -1            6  #  X C_R N_3 X bond order=1.0
    11      6.73711           -1            2  #  X C_R O_2_M X bond order=1.5
    12      0.31957           -1            2  #  X C_R O_3_M X bond order=1.5

Improper Coeffs

    1       2.00000      1.00000     -1.00000      0.00000            1  #  C_R X X X O_2 present=False
    2       2.00000      1.00000     -1.00000      0.00000            1  #  C_2 X X X O_2 present=False
    3      16.66667      1.00000     -1.00000      0.00000            1  #  C_R X X X O_2 present=True

Atoms # a, b, c, alpha, beta, gamma: 42.6960909311, 35.1356145488, 34.3626594197, 86.2246229739, 91.0451056037, 90.5371165769 $$$atoms$$$

    1 1     11     0.00000     14.22909     14.76794      2.51444   #   Zn1   0.33754746   0.41561989   0.07334429
    2 1     10     0.00000     17.15930     14.79663      2.53106   #   Zn2   0.40619005   0.41640532   0.07382913
    3 1     3      0.00000      9.83030     12.77100      0.88398   #    H1   0.23340869   0.36183700   0.02578512
    4 1     3      0.00000      7.41702     12.58209      0.49221   #    H2   0.17668288   0.35719413   0.01435725
    5 1     3      0.00000      6.76781     16.13799      2.86429   #    H3   0.16323973   0.45395931   0.08354890
    6 1     3      0.00000      9.18288     16.31397      3.24733   #    H4   0.22000092   0.45825021   0.09472214
    7 1     3      0.00000      3.12796     12.93026      2.30769   #    H5   0.07705479   0.36370231   0.06731353
    8 1     3      0.00000      0.68618     12.81071      2.48712   #    H6   0.01991316   0.35996363   0.07254723
    9 1     3      0.00000      0.44293     17.09955      2.14619   #    H7   0.01501644   0.48267297   0.06260265
   10 1     3      0.00000      2.89667     17.21941      1.93769   #    H8   0.07242647   0.48647508   0.05652074
   11 1     3      0.00000     14.67083     14.03494      1.86302   #    H9   0.34746312   0.39597746   0.05434267
   12 1     3      0.00000     13.91391     10.64352      1.35926   #   H10   0.32878182   0.30039326   0.03964849
   13 1     3      0.00000     13.94536      8.19136      1.36076   #   H11   0.32898078   0.23059611   0.03969232
   14 1     3      0.00000     17.57394      8.22615      3.68169   #   H12   0.41493478   0.22723768   0.10739181
   15 1     3      0.00000     17.55662     10.67892      3.68649   #   H13   0.41506969   0.29704028   0.10753210
   16 1     3      0.00000     17.95142      3.80661      2.56526   #   H14   0.42234359   0.10353887   0.07482662
   17 1     3      0.00000     17.97927      1.35435      2.56466   #   H15   0.42245726   0.03374276   0.07480919
   18 1     3      0.00000     13.65784      1.31832      2.48081   #   H16   0.32120080   0.03287419   0.07236319
   19 1     3      0.00000     13.64533      3.77104      2.48079   #   H17   0.32144640   0.10268450   0.07236276
   20 1     3      0.00000     16.90556     15.52977      2.54205   #   H18   0.40041252   0.43725152   0.07414953
   21 1     3      0.00000     17.55850     14.87987      1.45903   #   H19   0.41511443   0.42078313   0.04255879
   22 1     3      0.00000     17.47006     15.76981     15.10562   #   H20   0.41888468   0.42054363   0.44061890
   23 1     3      0.00000     16.97472     15.53315     12.72656   #   H21   0.40624691   0.41826512   0.37122341
   24 1     3      0.00000     12.76587     15.20722     13.63702   #   H22   0.30797505   0.40728268   0.39778103
   25 1     3      0.00000     13.26259     15.41628     16.01459   #   H23   0.32063855   0.40877822   0.46713262
   26 1     3      0.00000     12.97699     13.88869     11.75789   #   H24   0.31185272   0.37327482   0.34296821
   27 1     3      0.00000     15.80785     16.82335     10.93620   #   H25   0.37845965   0.45834182   0.31900013
   28 1     3      0.00000     15.30748     13.49381      9.42712   #   H26   0.36538506   0.36640271   0.27498155
   29 1     3      0.00000     15.48003     13.01068      7.03997   #   H27   0.36833258   0.35712455   0.20535041
   30 1     3      0.00000     15.85251     17.23558      6.21754   #   H28   0.37764397   0.47891630   0.18136077
   31 1     3      0.00000     15.65436     17.71191      8.61217   #   H29   0.37409828   0.48798700   0.25121015
   32 1     3      0.00000     16.03558     15.65336      3.08881   #   H30   0.38028973   0.43974481   0.09009821
   33 1     2      0.00000     11.08989     14.66234      2.31979   #    C1   0.26391937   0.41297879   0.06766629
   34 1     2      0.00000      9.67256     14.55533      2.09190   #    C2   0.23060586   0.41035999   0.06101898
   35 1     2      0.00000      9.16351     13.50727      1.31674   #    C3   0.21813222   0.38198213   0.03840835
   36 1     2      0.00000      7.78688     13.40225      1.09478   #    C4   0.18577490   0.37940884   0.03193395
   37 1     2      0.00000      6.90134     14.34687      1.64636   #    C5   0.16547000   0.40526152   0.04802299
   38 1     2      0.00000      7.42248     15.39601      2.42472   #    C6   0.17822827   0.43366438   0.07072700
   39 1     2      0.00000      8.79954     15.49881      2.64520   #    C7   0.21059457   0.43617718   0.07715841
   40 1     2      0.00000      5.44344     14.24049      1.41665   #    C8   0.13120550   0.40266406   0.04132260
   41 1     2      0.00000      3.19096     15.08824      2.06710   #    C9   0.07890475   0.42557447   0.06029572
   42 1     2      0.00000      2.55423     13.84398      2.23673   #   C10   0.06378867   0.38984203   0.06524356
   43 1     2      0.00000      1.16243     13.77510      2.35626   #   C11   0.03122502   0.38765761   0.06873023
   44 1     2      0.00000      0.39487     14.94545      2.31820   #   C12   0.01348897   0.42103969   0.06762009
   45 1     2      0.00000     20.31058     14.87387      2.44249   #   C13   0.47997761   0.41876946   0.07124550
   46 1     2      0.00000      1.02559     16.18640      2.16924   #   C14   0.02847222   0.45663930   0.06327502
   47 1     2      0.00000      2.41713     16.25533      2.05085   #   C15   0.06103021   0.45882306   0.05982160
   48 1     2      0.00000     15.73266     10.85455      2.52289   #   C16   0.37190717   0.30421950   0.07359055
   49 1     2      0.00000     14.71901     10.13082      1.86985   #   C17   0.34773704   0.28484393   0.05454203
   50 1     2      0.00000     14.73429      8.73252      1.86932   #   C18   0.34778773   0.24504609   0.05452668
   51 1     2      0.00000     15.76130      8.04059      2.52115   #   C19   0.37195947   0.22413060   0.07353980
   52 1     2      0.00000     16.77461      8.75202      3.17362   #   C20   0.39611869   0.24315722   0.09257200
   53 1     2      0.00000     16.76179     10.15031      3.17503   #   C21   0.39612601   0.28295318   0.09261315
   54 1     2      0.00000     15.77455      6.60157      2.52155   #   C22   0.37195398   0.18317195   0.07355163
   55 1     2      0.00000     15.78500      5.39604      2.52206   #   C23   0.37193414   0.14885883   0.07356641
   56 1     2      0.00000     15.79688      3.95702      2.52262   #   C24   0.37189679   0.10789965   0.07358281
   57 1     2      0.00000     17.01316      3.26529      2.54673   #   C25   0.40024170   0.08816632   0.07428594
   58 1     2      0.00000     17.02596      1.86695      2.54647   #   C26   0.40023439   0.04836656   0.07427854
   59 1     2      0.00000     15.82055      1.14300      2.52263   #   C27   0.37183335   0.02780592   0.07358306
   60 1     2      0.00000     14.60231      1.84704      2.49894   #   C28   0.34344516   0.04788908   0.07289220
   61 1     2      0.00000     14.59217      3.24534      2.49893   #   C29   0.34351478   0.08768807   0.07289173
   62 1     2      0.00000     15.40613     15.60678     15.74805   #   C30   0.37077458   0.41469965   0.45935807
   63 1     2      0.00000     16.43974     15.64290     14.79783   #   C31   0.39459797   0.41750809   0.43164094
   64 1     2      0.00000     16.15604     15.51294     13.43532   #   C32   0.38736112   0.41636199   0.39189759
   65 1     2      0.00000     14.83417     15.33891     12.99379   #   C33   0.35618025   0.41223585   0.37901828
   66 1     2      0.00000     13.79863     15.30894     13.94444   #   C34   0.33231319   0.40960187   0.40674815
   67 1     2      0.00000     14.08208     15.44013     15.30706   #   C35   0.33954446   0.41078270   0.44649464
   68 1     1      0.00000     14.55006     15.20712     11.54204   #   C36   0.34889632   0.41120490   0.33667218
   69 1     2      0.00000     15.42533     15.64588      9.19487   #   C37   0.36852164   0.42809106   0.26820686
   70 1     2      0.00000     15.39510     14.31903      8.73291   #   C38   0.36733108   0.39119142   0.25473187
   71 1     2      0.00000     15.50898     14.04253      7.36726   #   C39   0.36937266   0.38588032   0.21489715
   72 1     2      0.00000     15.66902     15.08622      6.43883   #   C40   0.37296594   0.41732579   0.18781555
   73 1     2      0.00000     15.72184     16.41023      6.90608   #   C41   0.37468720   0.45413483   0.20144486
   74 1     2      0.00000     15.60883     16.68483      8.27205   #   C42   0.37266575   0.45939110   0.24128913
   75 1     2      0.00000     15.67905     14.91804      4.95839   #   C43   0.37255152   0.41531276   0.14463224
   76 1     2      0.00000     15.70938     14.64656      0.08712   #   C44   0.37118674   0.41671294   0.00254123
   77 1     2      0.00000     15.67066     17.22106      2.46954   #   C45   0.37183082   0.48552549   0.07203439
   78 1     2      0.00000     15.71777     12.34352      2.57597   #   C46   0.37190742   0.34649974   0.07513909
   79 1     4      0.00000     12.22931     14.74837      2.50299   #    N1   0.29070083   0.41508410   0.07301026
   80 1     4      0.00000     19.15908     14.81631      2.54241   #    N2   0.45303666   0.41694419   0.07415997
   81 1     4      0.00000     13.57718     14.45732     11.12055   #    N3   0.32577120   0.39065365   0.32437754
   82 1     5      0.00000     15.33672     15.95388     10.59711   #    N4   0.36709403   0.43423012   0.30910909
   83 1     6      0.00000      4.98541     13.31045      0.69727   #    O1   0.11997613   0.37754079   0.02033873
   84 1     9      0.00000      4.58407     15.20912      1.95516   #    O2   0.11151345   0.42922465   0.05703040
   85 1     8      0.00000     16.81798     14.71383      0.59028   #    O3   0.39737457   0.41768502   0.01721788
   86 1     7      0.00000     16.79441     14.87253      4.46785   #    O4   0.39846183   0.41493651   0.13032346
   87 1     8      0.00000     16.78762     16.73224      2.45808   #    O5   0.39787950   0.47163418   0.07170018
   88 1     7      0.00000     16.82477     12.85412      2.60004   #    O6   0.39795687   0.36098735   0.07584113
   89 1     7      0.00000     14.56363     16.71046      2.44547   #    O7   0.34578062   0.47103786   0.07133229
   90 1     7      0.00000     14.57042     14.85076      4.45523   #    O8   0.34636294   0.41434064   0.12995555
   91 1     7      0.00000     14.59398     14.69207      0.57765   #    O9   0.34527568   0.41708913   0.01684951
   92 1     7      0.00000     14.60078     12.83235      2.58741   #   O10   0.34585798   0.36039146   0.07547279
   93 1     11     0.00000     13.91572     15.89636     19.65581   #   Zn1   0.33754746   0.41561989   0.57334429
   94 1     10     0.00000     16.84592     15.92505     19.67243   #   Zn2   0.40619005   0.41640532   0.57382913
   95 1     3      0.00000      9.51692     13.89942     18.02535   #    H1   0.23340869   0.36183700   0.52578512
   96 1     3      0.00000      7.10364     13.71050     17.63358   #    H2   0.17668288   0.35719413   0.51435725
   97 1     3      0.00000      6.45443     17.26641     20.00566   #    H3   0.16323973   0.45395931   0.58354890
   98 1     3      0.00000      8.86950     17.44239     20.38870   #    H4   0.22000092   0.45825021   0.59472214
   99 1     3      0.00000      2.81458     14.05868     19.44906   #    H5   0.07705479   0.36370231   0.56731353
  100 1     3      0.00000      0.37280     13.93913     19.62849   #    H6   0.01991316   0.35996363   0.57254723
  101 1     3      0.00000      0.12955     18.22797     19.28756   #    H7   0.01501644   0.48267297   0.56260265
  102 1     3      0.00000      2.58329     18.34783     19.07906   #    H8   0.07242647   0.48647508   0.55652074
  103 1     3      0.00000     14.35745     15.16336     19.00439   #    H9   0.34746312   0.39597746   0.55434267
  104 1     3      0.00000     13.60053     11.77194     18.50063   #   H10   0.32878182   0.30039326   0.53964849
  105 1     3      0.00000     13.63198      9.31978     18.50213   #   H11   0.32898078   0.23059611   0.53969232
  106 1     3      0.00000     17.26056      9.35457     20.82306   #   H12   0.41493478   0.22723768   0.60739181
  107 1     3      0.00000     17.24324     11.80733     20.82786   #   H13   0.41506969   0.29704028   0.60753210
  108 1     3      0.00000     17.63804      4.93503     19.70663   #   H14   0.42234359   0.10353887   0.57482662
  109 1     3      0.00000     17.66589      2.48277     19.70603   #   H15   0.42245726   0.03374276   0.57480919
  110 1     3      0.00000     13.34446      2.44673     19.62218   #   H16   0.32120080   0.03287419   0.57236319
  111 1     3      0.00000     13.33195      4.89945     19.62216   #   H17   0.32144640   0.10268450   0.57236276
  112 1     3      0.00000     16.59218     16.65819     19.68342   #   H18   0.40041252   0.43725152   0.57414953
  113 1     3      0.00000     17.24512     16.00829     18.60040   #   H19   0.41511443   0.42078313   0.54255879
  114 1     3      0.00000     17.15668     16.89823     32.24699   #   H20   0.41888468   0.42054363   0.94061890
  115 1     3      0.00000     16.66134     16.66156     29.86793   #   H21   0.40624691   0.41826512   0.87122341
  116 1     3      0.00000     12.45249     16.33564     30.77839   #   H22   0.30797505   0.40728268   0.89778103
  117 1     3      0.00000     12.94921     16.54470     33.15596   #   H23   0.32063855   0.40877822   0.96713262
  118 1     3      0.00000     12.66361     15.01711     28.89926   #   H24   0.31185272   0.37327482   0.84296821
  119 1     3      0.00000     15.49447     17.95176     28.07757   #   H25   0.37845965   0.45834182   0.81900013
  120 1     3      0.00000     14.99410     14.62223     26.56849   #   H26   0.36538506   0.36640271   0.77498155
  121 1     3      0.00000     15.16665     14.13910     24.18134   #   H27   0.36833258   0.35712455   0.70535041
  122 1     3      0.00000     15.53913     18.36400     23.35891   #   H28   0.37764397   0.47891630   0.68136077
  123 1     3      0.00000     15.34098     18.84033     25.75354   #   H29   0.37409828   0.48798700   0.75121015
  124 1     3      0.00000     15.72220     16.78178     20.23018   #   H30   0.38028973   0.43974481   0.59009821
  125 1     2      0.00000     10.77651     15.79076     19.46116   #    C1   0.26391937   0.41297879   0.56766629
  126 1     2      0.00000      9.35918     15.68374     19.23327   #    C2   0.23060586   0.41035999   0.56101898
  127 1     2      0.00000      8.85013     14.63569     18.45811   #    C3   0.21813222   0.38198213   0.53840835
  128 1     2      0.00000      7.47350     14.53066     18.23615   #    C4   0.18577490   0.37940884   0.53193395
  129 1     2      0.00000      6.58796     15.47528     18.78773   #    C5   0.16547000   0.40526152   0.54802299
  130 1     2      0.00000      7.10911     16.52443     19.56609   #    C6   0.17822827   0.43366438   0.57072700
  131 1     2      0.00000      8.48616     16.62723     19.78657   #    C7   0.21059457   0.43617718   0.57715841
  132 1     2      0.00000      5.13006     15.36890     18.55802   #    C8   0.13120550   0.40266406   0.54132260
  133 1     2      0.00000      2.87758     16.21666     19.20847   #    C9   0.07890475   0.42557447   0.56029572
  134 1     2      0.00000      2.24085     14.97240     19.37810   #   C10   0.06378867   0.38984203   0.56524356
  135 1     2      0.00000      0.84905     14.90352     19.49763   #   C11   0.03122502   0.38765761   0.56873023
  136 1     2      0.00000      0.08149     16.07386     19.45957   #   C12   0.01348897   0.42103969   0.56762009
  137 1     2      0.00000     19.99720     16.00228     19.58386   #   C13   0.47997761   0.41876946   0.57124550
  138 1     2      0.00000      0.71221     17.31482     19.31061   #   C14   0.02847222   0.45663930   0.56327502
  139 1     2      0.00000      2.10376     17.38375     19.19222   #   C15   0.06103021   0.45882306   0.55982160
  140 1     2      0.00000     15.41928     11.98297     19.66426   #   C16   0.37190717   0.30421950   0.57359055
  141 1     2      0.00000     14.40563     11.25924     19.01122   #   C17   0.34773704   0.28484393   0.55454203
  142 1     2      0.00000     14.42091      9.86094     19.01069   #   C18   0.34778773   0.24504609   0.55452668
  143 1     2      0.00000     15.44792      9.16901     19.66252   #   C19   0.37195947   0.22413060   0.57353980
  144 1     2      0.00000     16.46123      9.88044     20.31499   #   C20   0.39611869   0.24315722   0.59257200
  145 1     2      0.00000     16.44841     11.27873     20.31640   #   C21   0.39612601   0.28295318   0.59261315
  146 1     2      0.00000     15.46117      7.72999     19.66292   #   C22   0.37195398   0.18317195   0.57355163
  147 1     2      0.00000     15.47162      6.52446     19.66343   #   C23   0.37193414   0.14885883   0.57356641
  148 1     2      0.00000     15.48350      5.08544     19.66399   #   C24   0.37189679   0.10789965   0.57358281
  149 1     2      0.00000     16.69978      4.39371     19.68810   #   C25   0.40024170   0.08816632   0.57428594
  150 1     2      0.00000     16.71258      2.99537     19.68784   #   C26   0.40023439   0.04836656   0.57427854
  151 1     2      0.00000     15.50717      2.27142     19.66400   #   C27   0.37183335   0.02780592   0.57358306
  152 1     2      0.00000     14.28893      2.97546     19.64031   #   C28   0.34344516   0.04788908   0.57289220
  153 1     2      0.00000     14.27879      4.37376     19.64030   #   C29   0.34351478   0.08768807   0.57289173
  154 1     2      0.00000     15.09275     16.73520     32.88942   #   C30   0.37077458   0.41469965   0.95935807
  155 1     2      0.00000     16.12636     16.77132     31.93920   #   C31   0.39459797   0.41750809   0.93164094
  156 1     2      0.00000     15.84266     16.64136     30.57669   #   C32   0.38736112   0.41636199   0.89189759
  157 1     2      0.00000     14.52079     16.46732     30.13515   #   C33   0.35618025   0.41223585   0.87901828
  158 1     2      0.00000     13.48525     16.43736     31.08581   #   C34   0.33231319   0.40960187   0.90674815
  159 1     2      0.00000     13.76870     16.56855     32.44843   #   C35   0.33954446   0.41078270   0.94649464
  160 1     1      0.00000     14.23668     16.33553     28.68341   #   C36   0.34889632   0.41120490   0.83667218
  161 1     2      0.00000     15.11195     16.77430     26.33624   #   C37   0.36852164   0.42809106   0.76820686
  162 1     2      0.00000     15.08172     15.44745     25.87428   #   C38   0.36733108   0.39119142   0.75473187
  163 1     2      0.00000     15.19560     15.17095     24.50863   #   C39   0.36937266   0.38588032   0.71489715
  164 1     2      0.00000     15.35564     16.21464     23.58020   #   C40   0.37296594   0.41732579   0.68781555
  165 1     2      0.00000     15.40846     17.53865     24.04745   #   C41   0.37468720   0.45413483   0.70144486
  166 1     2      0.00000     15.29545     17.81325     25.41342   #   C42   0.37266575   0.45939110   0.74128913
  167 1     2      0.00000     15.36567     16.04646     22.09976   #   C43   0.37255152   0.41531276   0.64463224
  168 1     2      0.00000     15.39600     15.77497     17.22849   #   C44   0.37118674   0.41671294   0.50254123
  169 1     2      0.00000     15.35728     18.34947     19.61091   #   C45   0.37183082   0.48552549   0.57203439
  170 1     2      0.00000     15.40439     13.47194     19.71734   #   C46   0.37190742   0.34649974   0.57513909
  171 1     4      0.00000     11.91593     15.87678     19.64436   #    N1   0.29070083   0.41508410   0.57301026
  172 1     4      0.00000     18.84570     15.94473     19.68378   #    N2   0.45303666   0.41694419   0.57415997
  173 1     4      0.00000     13.26380     15.58574     28.26192   #    N3   0.32577120   0.39065365   0.82437754
  174 1     5      0.00000     15.02334     17.08230     27.73848   #    N4   0.36709403   0.43423012   0.80910909
  175 1     6      0.00000      4.67203     14.43886     17.83864   #    O1   0.11997613   0.37754079   0.52033873
  176 1     9      0.00000      4.27069     16.33754     19.09653   #    O2   0.11151345   0.42922465   0.55703040
  177 1     8      0.00000     16.50460     15.84225     17.73165   #    O3   0.39737457   0.41768502   0.51721788
  178 1     7      0.00000     16.48103     16.00095     21.60921   #    O4   0.39846183   0.41493651   0.63032346
  179 1     8      0.00000     16.47424     17.86066     19.59945   #    O5   0.39787950   0.47163418   0.57170018
  180 1     7      0.00000     16.51139     13.98253     19.74141   #    O6   0.39795687   0.36098735   0.57584113
  181 1     7      0.00000     14.25025     17.83888     19.58684   #    O7   0.34578062   0.47103786   0.57133229
  182 1     7      0.00000     14.25704     15.97918     21.59660   #    O8   0.34636294   0.41434064   0.62995555
  183 1     7      0.00000     14.28060     15.82048     17.71902   #    O9   0.34527568   0.41708913   0.51684951
  184 1     7      0.00000     14.28740     13.96077     19.72878   #   O10   0.34585798   0.36039146   0.57547279
  185 1     11     0.00000     14.06441     32.33498      2.51444   #   Zn1   0.33754746   0.91561989   0.07334429
  186 1     10     0.00000     16.99462     32.36367      2.53106   #   Zn2   0.40619005   0.91640532   0.07382913
  187 1     3      0.00000      9.66561     30.33803      0.88398   #    H1   0.23340869   0.86183700   0.02578512
  188 1     3      0.00000      7.25233     30.14912      0.49221   #    H2   0.17668288   0.85719413   0.01435725
  189 1     3      0.00000      6.60313     33.70503      2.86429   #    H3   0.16323973   0.95395931   0.08354890
  190 1     3      0.00000      9.01819     33.88100      3.24733   #    H4   0.22000092   0.95825021   0.09472214
  191 1     3      0.00000      2.96327     30.49729      2.30769   #    H5   0.07705479   0.86370231   0.06731353