ITEM: TIMESTEP
0
ITEM: NUMBER OF ATOMS
736
ITEM: BOX BOUNDS xy xz yz pp pp pp
-9.5613081999999994e-01 4.2696090929999997e+01 -3.2937232999999999e-01
0.0000000000000000e+00 3.7390906730000005e+01 -6.2675848999999995e-01
0.0000000000000000e+00 3.4282739489999997e+01 2.2568360400000000e+00
ITEM: ATOMS id type element x y z q
16 3 H 18.0776 5.23549 2.57627 0
17 3 H 18.2514 2.90445 3.26468 0
18 3 H 13.939 2.60828 3.34984 0
19 3 H 13.7646 4.94022 2.66474 0
54 2 C 16.6693 7.40541 1.99424 0
55 2 C 15.7322 6.60463 2.22204 0
56 2 C 15.901 5.26626 2.5659 0
57 2 C 17.167 4.67077 2.7354 0
58 2 C 17.2671 3.33628 3.13286 0
59 2 C 16.1092 2.57446 3.36486 0
60 2 C 14.8498 3.16874 3.17942 0
61 2 C 14.7491 4.5019 2.78607 0
261 2 C 16.2106 1.17033 3.80582 0
271 8 O 17.3836 0.685058 4.11139 0
273 7 O 15.1393 0.479421 3.91294 0
386 3 H 35.2861 2.6014 3.36134 0
387 3 H 35.1119 4.93334 2.67619 0
384 3 H 39.4249 5.22857 2.58864 0
385 3 H 39.5986 2.89753 3.2771 0
422 2 C 38.0167 7.3985 2.00624 0
423 2 C 37.0796 6.59771 2.23386 0
424 2 C 37.2484 5.25935 2.57779 0
425 2 C 38.5143 4.66386 2.74758 0
426 2 C 38.6143 3.32937 3.14507 0
427 2 C 37.4563 2.56756 3.37683 0
428 2 C 36.197 3.16185 3.19111 0
429 2 C 36.0964 4.49501 2.79773 0
629 2 C 37.5576 1.16343 3.8178 0
639 8 O 38.7306 0.67807 4.12342 0
641 7 O 36.4863 0.47258 3.9249 0
11 3 H 12.2726 14.5748 2.82834 0
13 3 H 14.2774 8.71957 1.85734 0
51 2 C 16.4528 8.75583 1.71078 0
12 3 H 13.9912 11.0949 1.4959 0
14 3 H 18.5665 9.17147 1.50248 0
15 3 H 18.2707 11.5745 1.13441 0
48 2 C 16.1085 11.5204 1.28778 0
49 2 C 14.995 10.6883 1.48203 0
50 2 C 15.1613 9.32282 1.68906 0
52 2 C 17.5635 9.58244 1.48847 0
53 2 C 17.3944 10.9543 1.27698 0
78 2 C 15.9179 12.9763 1.15968 0
88 7 O 16.8998 13.7287 0.846263 0
92 7 O 14.7711 13.4702 1.41191 0
379 3 H 33.6202 14.5718 2.84292 0
380 3 H 35.3387 11.0879 1.50707 0
381 3 H 35.6249 8.7126 1.86871 0
419 2 C 37.8003 8.74891 1.72268 0
382 3 H 39.9141 9.16459 1.51486 0
383 3 H 39.6182 11.5676 1.14655 0
416 2 C 37.456 11.5134 1.29941 0
417 2 C 36.3425 10.6813 1.49345 0
418 2 C 36.5089 9.31587 1.70061 0
420 2 C 38.911 9.57554 1.50058 0
421 2 C 38.7419 10.9474 1.28895 0
446 2 C 37.2654 12.9694 1.17117 0
456 7 O 38.2473 13.7218 0.857742 0
460 7 O 36.1185 13.4632 1.42328 0
40 2 C 4.73838 16.5054 1.54172 0
83 6 O 4.2072 16.157 2.65444 0
37 2 C 6.21398 16.4716 1.40513 0
7 3 H 2.47296 18.1358 2.26641 0
8 3 H 0.028337 17.9981 2.47896 0
42 2 C 1.91888 17.4902 1.597 0
43 2 C 0.526139 17.4147 1.71278 0
41 2 C 2.59308 16.7303 0.622811 0
84 9 O 3.99142 16.7772 0.472062 0
3 3 H 9.00184 15.8231 3.24697 0
4 3 H 6.58412 15.9488 3.47764 0
33 2 C 10.408 16.2288 0.949882 0
34 2 C 9.02444 16.3271 1.13021 0
35 2 C 8.41194 16.082 2.37593 0
36 2 C 7.02342 16.1537 2.50932 0
79 4 N 11.1435 15.9384 1.85794 0
38 2 C 6.82748 16.73 0.166018 0
39 2 C 8.21879 16.6577 0.0313923 0
1 11 Zn 13.7018 15.7003 1.51806 0
2 10 Zn 16.9041 15.8566 0.737165 0
29 3 H 15.215 15.0421 6.0865 0
45 2 C 19.7467 16.5251 1.00469 0
80 4 N 19.0621 15.8355 0.293612 0
90 7 O 15.2088 15.7752 3.59069 0
32 3 H 15.5477 15.8507 0.999918 0
202 3 H 13.6987 20.1606 2.15065 0
71 2 C 16.2016 15.4536 6.26003 0
75 2 C 16.4638 15.881 3.80192 0
86 7 O 17.2873 15.9483 2.82896 0
20 3 H 16.8569 17.2717 0.688926 0
30 3 H 18.8765 16.8217 4.64383 0
72 2 C 16.9768 15.9297 5.18821 0
73 2 C 18.2565 16.4479 5.44967 0
74 2 C 18.7487 16.4968 6.75593 0
77 2 C 15.8035 18.7228 1.18326 0
87 8 O 16.8733 18.2231 0.618458 0
89 7 O 14.7756 18.0141 1.46276 0
201 3 H 17.8447 20.5325 0.980975 0
241 2 C 16.8946 22.3116 1.69665 0
242 2 C 16.9228 20.9565 1.35924 0
243 2 C 15.7754 20.1605 1.51705 0
244 2 C 14.5996 20.7464 2.01611 0
245 2 C 14.5701 22.0988 2.35034 0
70 2 C 16.7005 15.4899 7.567 0
31 3 H 19.7373 16.9029 6.92934 0
69 2 C 17.975 16.0211 7.8287 0
28 3 H 16.0938 15.1082 8.37867 0
408 2 C 26.086 16.4995 1.54311 0
412 2 C 21.1338 16.5938 0.846954 0
451 6 O 25.5529 16.1448 2.65292 0
372 3 H 27.9284 15.9314 3.47882 0
405 2 C 27.5618 16.466 1.40867 0
375 3 H 23.8212 18.1276 2.27418 0
376 3 H 21.3762 17.9906 2.4829 0
410 2 C 23.2674 17.4864 1.60029 0
411 2 C 21.8745 17.4114 1.7139 0
409 2 C 23.9422 16.7317 0.622538 0
452 9 O 25.3408 16.7783 0.473974 0
371 3 H 30.3465 15.8065 3.25143 0
401 2 C 31.7565 16.2249 0.959017 0
402 2 C 30.3727 16.3224 1.13757 0
403 2 C 29.7581 16.0704 2.38088 0
404 2 C 28.3694 16.1417 2.51237 0
447 4 N 32.4905 15.9294 1.86666 0
369 11 Zn 35.0493 15.6932 1.52906 0
406 2 C 28.1774 16.7312 0.172039 0
407 2 C 29.5689 16.6593 0.0393013 0
570 3 H 35.0456 20.1539 2.16034 0
397 3 H 36.5628 15.0354 6.09776 0
370 10 Zn 38.2517 15.8497 0.748499 0
413 2 C 41.0943 16.5227 1.01111 0
448 4 N 40.4095 15.8284 0.304749 0
458 7 O 36.5565 15.7685 3.6018 0
400 3 H 36.8953 15.8439 1.01132 0
44 2 C 42.4811 16.5914 0.85153 0
439 2 C 37.5492 15.4473 6.27127 0
443 2 C 37.8114 15.8744 3.8131 0
454 7 O 38.6349 15.9415 2.84018 0
388 3 H 38.2044 17.2648 0.700176 0
398 3 H 40.2237 16.8161 4.65497 0
440 2 C 38.3243 15.9235 5.19941 0
441 2 C 39.6038 16.4422 5.46084 0
442 2 C 40.0959 16.4915 6.76711 0
445 2 C 37.1508 18.7159 1.19397 0
455 8 O 38.2208 18.2162 0.629665 0
457 7 O 36.1228 18.0072 1.47334 0
569 3 H 39.192 20.5257 0.992144 0
609 2 C 38.2416 22.3048 1.7073 0
610 2 C 38.2699 20.9497 1.37001 0
611 2 C 37.1225 20.1537 1.5275 0
612 2 C 35.9465 20.7397 2.02606 0
613 2 C 35.9168 22.0921 2.36016 0
438 2 C 38.0481 15.484 7.57825 0
399 3 H 41.0844 16.898 6.9405 0
437 2 C 39.3223 16.0157 7.83993 0
396 3 H 37.4414 15.1022 8.38996 0
203 3 H 13.6489 22.5248 2.73251 0
200 3 H 17.7953 22.8989 1.56535 0
240 2 C 15.7122 22.8932 2.19748 0
196 3 H 14.1194 28.6786 3.90746 0
197 3 H 14.307 26.3199 3.38904 0
198 3 H 18.4692 26.8698 2.34304 0
199 3 H 18.2755 29.2513 2.86799 0
232 2 C 16.1827 29.1502 3.43042 0
233 2 C 15.0771 28.2975 3.57501 0
234 2 C 15.1863 26.9423 3.27535 0
235 2 C 16.4101 26.4072 2.82069 0
236 2 C 17.5179 27.2561 2.69089 0
237 2 C 17.407 28.6163 2.99235 0
238 2 C 16.5562 25.0618 2.47479 0
239 2 C 15.6151 24.2374 2.54826 0
571 3 H 34.9955 22.5181 2.74199 0
564 3 H 35.4661 28.6718 3.91794 0
568 3 H 39.1423 22.8921 1.5763 0
608 2 C 37.059 22.8864 2.20767 0
565 3 H 35.6536 26.3132 3.39925 0
566 3 H 39.816 26.8631 2.35389 0
567 3 H 39.6224 29.2445 2.87908 0
600 2 C 37.5294 29.1434 3.44122 0
601 2 C 36.4238 28.2907 3.58556 0
602 2 C 36.533 26.9355 3.28575 0
603 2 C 37.7568 26.4004 2.83119 0
604 2 C 38.8647 27.2493 2.70164 0
605 2 C 38.7538 28.6095 3.00323 0
606 2 C 37.903 25.055 2.48524 0
607 2 C 36.9618 24.2307 2.55843 0
193 3 H -0.0261235 30.963 5.26548 0
194 3 H 2.42166 30.734 5.18441 0
230 2 C 0.546538 31.631 4.63223 0
231 2 C 1.93829 31.4988 4.58982 0
191 3 H 2.64773 33.9923 2.38254 0
192 3 H 0.209458 34.2368 2.45055 0
224 2 C 4.84413 33.2607 4.12238 0
225 2 C 2.70921 32.3599 3.80145 0
226 2 C 2.06712 33.3346 3.01696 0
227 2 C 0.675197 33.4675 3.0545 0
228 2 C -0.0986184 32.6189 3.87298 0
267 6 O 4.29958 34.3453 4.53403 0
268 9 O 4.10763 32.2022 3.78352 0
189 3 H 6.37585 31.1505 3.28451 0
221 2 C 6.32333 33.1535 4.11423 0
190 3 H 8.8166 30.9763 3.28961 0
187 3 H 9.08835 34.9562 4.95193 0
188 3 H 6.66167 35.1295 4.94372 0
217 2 C 10.5368 32.8057 4.11453 0
218 2 C 9.14472 32.947 4.11999 0
219 2 C 8.51061 34.1171 4.58352 0
220 2 C 7.11688 34.2173 4.57855 0
222 2 C 6.95765 31.9876 3.64956 0
223 2 C 8.35411 31.8873 3.65191 0
263 4 N 11.2659 33.6755 4.51863 0
195 3 H 12.6742 32.2163 6.0324 0
301 3 H 13.4994 31.5453 0.0959752 0
262 2 C 16.0385 30.5939 3.69605 0
272 7 O 17.0432 31.3694 3.55328 0
276 7 O 14.8938 31.0558 4.02332 0
185 11 Zn 13.8481 33.3123 4.46631 0
186 10 Zn 17.077 33.4808 3.7996 0
204 3 H 17.0416 34.8765 3.96737 0
205 3 H 16.7439 33.6328 2.43485 0
214 3 H 19.0267 34.2328 7.69323 0
216 3 H 15.7321 33.4263 4.11114 0
229 2 C 19.8607 32.7385 3.95976 0
256 2 C 17.1023 33.3783 8.20724 0
257 2 C 18.3792 33.8894 8.49093 0
259 2 C 16.626 33.3259 6.81226 0
260 2 C 15.5014 33.0701 1.18775 0
264 4 N 19.2358 33.559 3.33762 0
269 8 O 16.5438 33.7859 1.51479 0
270 7 O 17.4801 33.2702 5.86482 0
274 7 O 15.3725 33.3745 6.5669 0
275 7 O 14.5387 32.866 2.00822 0
561 3 H 21.319 30.9607 5.24789 0
562 3 H 23.7667 30.73 5.16888 0
598 2 C 21.893 31.6307 4.61784 0
599 2 C 23.2847 31.4974 4.5766 0
557 3 H 27.7243 31.1535 3.27286 0
559 3 H 23.9989 33.9989 2.37993 0
560 3 H 21.5607 34.2451 2.44582 0
589 2 C 27.6711 33.1511 4.11547 0
592 2 C 26.1919 33.2588 4.1218 0
593 2 C 24.0572 32.361 3.79248 0
594 2 C 23.4169 33.3392 3.01098 0
595 2 C 22.025 33.4731 3.04731 0
596 2 C 21.2496 32.622 3.86162 0
635 6 O 25.6471 34.3414 4.53837 0
636 9 O 25.4556 32.2025 3.77582 0
556 3 H 28.0087 35.1216 4.95831 0
558 3 H 30.165 30.9786 3.28061 0
553 11 Zn 35.1952 33.3054 4.47832 0
555 3 H 30.4353 34.9475 4.96919 0
585 2 C 31.8844 32.8022 4.1198 0
586 2 C 30.4924 32.9437 4.12431 0
587 2 C 29.8579 34.1109 4.59449 0
588 2 C 28.4642 34.2117 4.58797 0
590 2 C 28.3058 31.988 3.64429 0
591 2 C 29.7022 31.8873 3.64815 0
631 4 N 32.6131 33.6692 4.53068 0
563 3 H 34.0189 32.21 6.04292 0
669 3 H 34.8455 31.5384 0.107902 0
630 2 C 37.3854 30.5871 3.70709 0
640 7 O 38.39 31.3626 3.56414 0
644 7 O 36.2407 31.0489 4.03479 0
554 10 Zn 38.4239 33.4739 3.81099 0
572 3 H 38.3885 34.8696 3.97914 0
573 3 H 38.0901 33.6263 2.44643 0
582 3 H 40.3754 34.2234 7.70439 0
584 3 H 37.0791 33.4193 4.12319 0
597 2 C 41.2085 32.7345 3.9721 0
624 2 C 38.4505 33.37 8.21861 0
625 2 C 39.7278 33.8802 8.50215 0
627 2 C 37.9739 33.3182 6.8237 0
628 2 C 36.8475 33.0633 1.19965 0
632 4 N 40.5824 33.5523 3.3477 0
637 8 O 37.8896 33.7797 1.52652 0
638 7 O 38.8278 33.2627 5.87603 0
642 7 O 36.7203 33.3669 6.57867 0
643 7 O 35.8849 32.859 2.02023 0
210 3 H 17.1836 1.11898 13.3466 0
578 3 H 38.5348 1.11039 13.3581 0
103 3 H 11.7735 14.4009 15.4058 0
22 3 H 18.0829 14.1838 13.7714 0
63 2 C 17.4419 14.8569 13.2156 0
113 3 H 16.3393 14.2183 16.6299 0
168 2 C 15.6705 14.6237 14.9703 0
177 8 O 16.4982 13.9585 15.7258 0
183 7 O 14.4468 14.7885 15.3093 0
471 3 H 33.1242 14.3782 15.4153 0
390 3 H 39.4309 14.1784 13.7824 0
431 2 C 38.7897 14.8514 13.2267 0
481 3 H 37.6874 14.2112 16.6404 0
536 2 C 37.0182 14.6171 14.9812 0
545 8 O 37.8459 13.9514 15.7363 0
551 7 O 35.7946 14.7818 15.3205 0
102 3 H 1.42628 16.1933 15.2363 0
97 3 H 5.42222 16.8277 17.1327 0
138 2 C -0.433202 15.714 16.2066 0
139 2 C 0.958535 15.849 16.1499 0
98 3 H 7.86519 16.9743 17.0865 0
25 3 H 14.3681 16.3336 13.2719 0
26 3 H 16.933 18.66 10.3957 0
81 4 N 17.4864 18.1182 9.7162 0
24 3 H 15.2055 17.2863 11.1811 0
23 3 H 18.9134 15.1367 11.6843 0
27 3 H 19.457 16.4581 9.18406 0
62 2 C 16.1587 15.1829 13.6881 0
64 2 C 17.918 15.4005 12.0202 0
65 2 C 17.129 16.2917 11.2772 0
66 2 C 15.8419 16.6131 11.7414 0
67 2 C 15.3608 16.0624 12.9347 0
68 1 C 17.6698 16.8758 10.0203 0
82 5 N 18.4935 16.0492 9.17551 0
469 3 H 20.3303 15.9463 15.3158 0
506 2 C 20.9175 15.7089 16.1959 0
465 3 H 26.7723 16.8227 17.1188 0
470 3 H 22.7785 16.1822 15.2256 0
507 2 C 22.3094 15.8425 16.1402 0
466 3 H 29.2154 16.9677 17.0739 0
391 3 H 40.261 15.1319 11.6955 0
393 3 H 35.7152 16.3268 13.283 0
394 3 H 38.2791 18.6543 10.4067 0
449 4 N 38.8327 18.1127 9.72728 0
392 3 H 36.5523 17.2799 11.1923 0
434 2 C 37.189 16.607 11.7526 0
395 3 H 40.8042 16.4535 9.19528 0
430 2 C 37.5063 15.1767 13.6992 0
432 2 C 39.2655 15.3952 12.0313 0
433 2 C 38.4761 16.2862 11.2884 0
435 2 C 36.7081 16.056 12.9459 0
436 1 C 39.0167 16.8704 10.0315 0
450 5 N 39.8408 16.0441 9.18675 0
101 3 H 41.6744 15.955 15.3283 0
213 3 H 15.2987 32.5455 9.07128 0
255 2 C 16.2858 32.9467 9.26552 0
258 2 C 18.8271 33.9828 9.80905 0
208 3 H 15.1706 34.9921 14.2313 0
209 3 H 14.2983 34.0148 16.2981 0
265 4 N 17.4341 35.7026 12.6977 0
206 3 H 17.8846 31.6327 16.6678 0
207 3 H 18.7535 32.6116 14.6252 0
211 3 H 19.44 34.0606 12.2605 0
212 3 H 16.1042 32.6775 11.3895 0
215 3 H 19.8128 34.3876 10.0012 0
246 2 C 16.0209 32.7462 16.6471 0
247 2 C 17.278 32.3643 16.1486 0
248 2 C 17.7775 32.9246 14.9754 0
249 2 C 17.0395 33.8873 14.2719 0
250 2 C 15.7745 34.2661 14.76 0
251 2 C 15.2704 33.7008 15.9389 0
252 1 C 17.6166 34.4667 13.0279 0
253 2 C 18.0112 33.5568 10.8703 0
254 2 C 16.7422 33.023 10.5856 0
266 5 N 18.4834 33.6368 12.2302 0
581 3 H 36.6465 32.5383 9.0829 0
623 2 C 37.6339 32.9387 9.277 0
583 3 H 41.162 34.3773 10.0123 0
626 2 C 40.176 33.9732 9.8202 0
576 3 H 36.5211 34.9845 14.2432 0
577 3 H 35.6487 34.008 16.3103 0
618 2 C 37.1247 34.2582 14.7719 0
619 2 C 36.6206 33.6934 15.951 0
633 4 N 38.7848 35.6936 12.7092 0
574 3 H 39.2338 31.6239 16.6796 0
575 3 H 40.1028 32.602 14.6366 0
579 3 H 40.7895 34.0502 12.2715 0
580 3 H 37.4525 32.6694 11.401 0
614 2 C 37.3707 32.7385 16.6592 0
615 2 C 38.6275 32.3558 16.1604 0
616 2 C 39.1271 32.9156 14.987 0
617 2 C 38.3894 33.8786 14.2835 0
620 1 C 38.9665 34.4576 13.0392 0
621 2 C 39.3601 33.5476 10.8815 0
622 2 C 38.0907 33.0146 10.5971 0
634 5 N 39.8325 33.6271 12.2413 0
111 3 H 13.173 3.52335 19.4001 0
108 3 H 17.4449 3.88859 19.9416 0
109 3 H 17.5992 1.47705 20.3316 0
147 2 C 15.1232 5.256 19.3937 0
148 2 C 15.2901 3.89214 19.6401 0
149 2 C 16.5395 3.2949 19.9092 0
150 2 C 16.6287 1.91414 20.1325 0
152 2 C 14.2338 1.71666 19.8309 0
153 2 C 14.1451 3.08874 19.6057 0
146 2 C 16.0406 6.11163 19.4002 0
105 3 H 13.6678 7.31799 18.7552 0
143 2 C 15.8099 7.46796 19.1323 0
479 3 H 34.5246 3.51619 19.4119 0
473 3 H 35.0188 7.30996 18.7673 0
476 3 H 38.7964 3.88104 19.9542 0
515 2 C 36.4748 5.24859 19.4058 0
516 2 C 36.6416 3.88477 19.6523 0
517 2 C 37.891 3.28741 19.9217 0
518 2 C 37.98 1.90664 20.1451 0
520 2 C 35.585 1.70944 19.843 0
521 2 C 35.4966 3.0815 19.6178 0
514 2 C 37.3921 6.10436 19.4123 0
511 2 C 37.161 7.46062 19.1442 0
477 3 H 38.9503 1.46941 20.3445 0
96 3 H 5.69433 12.5421 17.6061 0
175 6 O 3.33563 13.4345 17.5953 0
128 2 C 6.15282 13.5164 17.4912 0
99 3 H 1.72302 14.8635 19.3179 0
132 2 C 3.88237 14.578 17.406 0
129 2 C 5.36255 14.6735 17.3726 0
95 3 H 8.12211 12.6861 17.5568 0
127 2 C 7.54749 13.5996 17.4622 0
171 4 N 10.3064 14.0135 17.3732 0
104 3 H 13.3537 9.67853 18.2944 0
93 11 Zn 12.9046 14.305 17.3402 0
182 7 O 13.4749 14.8799 19.8277 0
126 2 C 8.18665 14.8471 17.3164 0
106 3 H 17.8854 8.001 19.4306 0
107 3 H 17.5623 10.3826 18.9689 0
140 2 C 15.4322 10.2186 18.5947 0
141 2 C 14.3482 9.3277 18.5411 0
142 2 C 14.5308 7.97055 18.8076 0
144 2 C 16.8921 8.35852 19.1846 0
145 2 C 16.7065 9.72066 18.9209 0
170 2 C 15.2275 11.6567 18.3096 0
180 7 O 16.1883 12.4816 18.4785 0
184 7 O 14.0851 12.061 17.9011 0
468 3 H 20.6327 14.6309 19.4241 0
94 10 Zn 16.1174 14.5447 17.9862 0
124 3 H 14.7685 14.3943 17.7733 0
172 4 N 18.2936 14.7427 18.343 0
464 3 H 27.0418 12.5407 17.6249 0
543 6 O 24.6835 13.4337 17.6028 0
496 2 C 27.5009 13.5138 17.5031 0
497 2 C 26.7113 14.6703 17.3748 0
500 2 C 25.231 14.5758 17.4073 0
467 3 H 23.0692 14.8715 19.3139 0
463 3 H 29.4697 12.683 17.5769 0
472 3 H 34.7041 9.67028 18.3061 0
495 2 C 28.8956 13.5961 17.4748 0
461 11 Zn 34.2533 14.2964 17.3515 0
494 2 C 29.5355 14.8421 17.3202 0
539 4 N 31.6548 14.0078 17.3852 0
550 7 O 34.8243 14.8707 19.8391 0
552 7 O 35.4344 12.053 17.9128 0
474 3 H 39.2363 7.99438 19.4423 0
475 3 H 38.9124 10.3758 18.9803 0
508 2 C 36.7824 10.2111 18.6062 0
509 2 C 35.6986 9.31982 18.5528 0
510 2 C 35.8817 7.96278 18.8195 0
512 2 C 38.2429 8.35155 19.1963 0
513 2 C 38.0569 9.71359 18.9324 0
538 2 C 36.5771 11.6491 18.3209 0
548 7 O 37.5377 12.4743 18.4892 0
100 3 H 41.983 14.6206 19.4301 0
462 10 Zn 37.466 14.5375 17.9968 0
492 3 H 36.1171 14.3867 17.7846 0
540 4 N 39.6423 14.7359 18.3524 0
135 2 C -0.26399 14.9646 18.5063 0
134 2 C 1.12691 15.0969 18.4448 0
133 2 C 1.74883 15.5225 17.2578 0
176 9 O 3.1467 15.6654 17.1717 0
130 2 C 6.00142 15.9175 17.225 0
125 2 C 9.58071 14.9718 17.2901 0
131 2 C 7.39916 16.0021 17.1989 0
294 3 H 12.6246 18.8068 18.4598 0
122 3 H 12.219 15.5974 21.9313 0
165 2 C 13.1214 15.7686 22.5048 0
166 2 C 13.0073 16.246 23.8154 0
295 3 H 12.5389 21.0979 19.2849 0
123 3 H 12.0261 16.4372 24.2315 0
336 2 C 13.5563 19.3347 18.6215 0
337 2 C 13.5062 20.6455 19.0964 0
137 2 C 18.9012 15.1148 17.3714 0
121 3 H 16.5271 15.6397 22.3 0
112 3 H 16.0063 15.922 17.6477 0
163 2 C 15.5365 15.7931 22.7097 0
164 2 C 14.3892 15.5446 21.9351 0
167 2 C 14.5223 15.1128 20.5249 0
169 2 C 14.8304 17.3311 17.8382 0
178 7 O 15.6856 15.0316 20.0017 0
179 8 O 15.9561 16.8399 17.39 0
181 7 O 13.7468 16.6495 17.83 0
293 3 H 16.9409 18.9909 18.3772 0
333 2 C 15.9263 20.753 19.0565 0
334 2 C 15.9754 19.4404 18.5736 0
335 2 C 14.79 18.7197 18.347 0
504 2 C 20.2907 15.2658 17.3708 0
120 3 H 16.3139 16.4731 24.5927 0
161 2 C 14.1598 16.4993 24.5772 0
162 2 C 15.4197 16.2681 24.0172 0
292 3 H 16.857 21.2852 19.2114 0
332 2 C 14.6846 21.3696 19.3167 0
501 2 C 23.0981 15.5206 17.2506 0
544 9 O 24.4962 15.6621 17.1654 0
498 2 C 27.3509 15.9129 17.2185 0
503 2 C 21.0833 14.9702 18.4992 0
502 2 C 22.4744 15.1011 18.4389 0
499 2 C 28.7488 15.9965 17.1931 0
493 2 C 30.9297 14.9659 17.294 0
662 3 H 33.9715 18.7993 18.4679 0
490 3 H 33.5685 15.5873 21.9431 0
533 2 C 34.4709 15.7588 22.5164 0
534 2 C 34.3568 16.2359 23.8272 0
549 7 O 35.0946 16.6415 17.8404 0
704 2 C 34.903 19.3272 18.6303 0
705 2 C 34.8525 20.6381 19.1051 0
663 3 H 33.885 21.0904 19.2927 0
491 3 H 33.3756 16.4265 24.2435 0
535 2 C 35.8717 15.1043 20.536 0
546 7 O 37.0349 15.0241 20.0125 0
489 3 H 37.8766 15.6319 22.3109 0
136 2 C 41.6379 15.2649 17.3802 0
480 3 H 37.3543 15.9148 17.6584 0
505 2 C 40.2485 15.1127 17.3817 0
531 2 C 36.8861 15.7847 22.7208 0
532 2 C 35.7387 15.5356 21.9464 0
537 2 C 36.1779 17.3235 17.8485 0
547 8 O 37.3039 16.8326 17.4007 0
661 3 H 38.2878 18.9835 18.389 0
701 2 C 37.2726 20.7457 19.0672 0
702 2 C 37.3221 19.433 18.5845 0
703 2 C 36.1369 18.7123 18.357 0
488 3 H 37.6634 16.4648 24.6037 0
529 2 C 35.5093 16.4897 24.5887 0
530 2 C 36.7692 16.2594 24.0284 0
660 3 H 38.2031 21.2779 19.2229 0
700 2 C 36.0306 21.3623 19.3263 0
288 3 H 13.0075 27.2379 20.6766 0
289 3 H 13.1885 24.8557 20.2523 0
290 3 H 17.4951 25.1222 20.5525 0
291 3 H 17.3074 27.5228 20.9829 0
324 2 C 15.1424 27.5689 20.8673 0
325 2 C 13.9918 26.7861 20.676 0
326 2 C 14.0978 25.4169 20.43 0
327 2 C 15.3642 24.7974 20.3637 0
328 2 C 16.5097 25.5715 20.5999 0
329 2 C 16.4017 26.9441 20.85 0
330 2 C 15.527 23.4534 20.0049 0
331 2 C 14.5625 22.6924 19.7486 0
354 2 C 15.0296 29.0412 20.9612 0
364 7 O 16.0632 29.7486 21.2083 0
368 7 O 13.9135 29.5957 20.6902 0
656 3 H 34.3536 27.2312 20.6856 0
657 3 H 34.5341 24.8489 20.2609 0
736 7 O 35.2602 29.5888 20.7015 0
693 2 C 35.3377 26.779 20.6857 0
658 3 H 38.8406 25.1141 20.5649 0
659 3 H 38.6533 27.5146 20.9958 0
692 2 C 36.4883 27.5614 20.8783 0
694 2 C 35.4435 25.4098 20.4395 0
695 2 C 36.7097 24.79 20.3742 0
696 2 C 37.8552 25.5637 20.6115 0
697 2 C 37.7475 26.9363 20.8618 0
698 2 C 36.8725 23.4459 20.0153 0
699 2 C 35.9082 22.6851 19.7581 0
722 2 C 36.3761 29.0338 20.9726 0
732 7 O 37.4099 29.7407 21.2201 0
281 3 H 5.5468 31.6802 23.2311 0
283 3 H 1.8375 30.9736 20.4981 0
284 3 H -0.596014 30.9518 20.2771 0
286 3 H 1.54016 33.6978 23.8158 0
316 2 C 3.98366 32.7185 21.2333 0
317 2 C 1.86461 32.3615 22.1568 0
318 2 C 1.24136 31.5753 21.1726 0
319 2 C -0.150271 31.5615 21.0538 0
322 2 C -0.324441 33.0949 22.923 0
323 2 C 1.07201 33.1037 23.0413 0
359 6 O 3.42129 33.1859 20.1808 0
360 9 O 3.26584 32.3708 22.3026 0
280 3 H 5.76693 33.4528 19.2976 0
313 2 C 5.46173 32.5889 21.2643 0
314 2 C 6.11307 32.0185 22.3725 0
312 2 C 6.23524 33.011 20.1683 0
110 3 H 12.9949 36.2643 19.7903 0
279 3 H 8.18443 33.1855 19.3067 0
282 3 H 7.97984 31.4091 23.2409 0
309 2 C 9.65976 32.069 21.3067 0
310 2 C 8.27477 32.2737 21.2796 0
311 2 C 7.6243 32.8574 20.174 0
315 2 C 7.50522 31.8627 22.3783 0
355 4 N 10.3693 32.3974 20.3898 0
277 11 Zn 12.9395 31.9268 20.4807 0
287 3 H 11.7248 30.6452 19.1032 0
306 3 H 12.7972 32.9822 25.1985 0
151 2 C 15.1457 36.2446 20.0945 0
278 10 Zn 16.2184 31.8475 20.8678 0
296 3 H 16.273 33.266 20.6074 0
297 3 H 16.2691 31.5924 19.4908 0
305 3 H 17.1119 32.6933 25.1682 0
308 3 H 14.8359 31.9026 20.796 0
321 2 C 19.0006 32.3444 21.8242 0
347 2 C 16.1766 32.9004 25.6735 0
348 2 C 14.9484 32.7713 24.9988 0
349 2 C 13.758 33.0618 25.6914 0
351 2 C 14.9195 32.4032 23.564 0
352 2 C 15.5261 32.1578 17.9119 0
353 2 C 15.2176 34.7804 20.309 0
356 4 N 18.4212 31.7133 20.9775 0
361 8 O 16.3125 31.3565 18.5685 0
362 7 O 16.0237 32.2442 22.9374 0
363 8 O 16.3861 34.2002 20.4372 0
365 7 O 14.1213 34.1248 20.3209 0
366 7 O 13.7969 32.3064 22.9529 0
367 7 O 14.3443 32.4204 18.3305 0
653 3 H 20.4318 33.6374 23.6421 0
688 2 C 20.3969 32.3171 21.9268 0
652 3 H 20.7515 30.9782 20.2461 0
649 3 H 26.8918 31.6381 23.225 0
651 3 H 23.1848 30.9937 20.4685 0
654 3 H 22.8873 33.6407 23.8481 0
681 2 C 26.8106 32.5825 21.2749 0
684 2 C 25.3328 32.7156 21.2448 0
685 2 C 23.2119 32.3431 22.1588 0
686 2 C 22.5887 31.5802 21.1563 0
687 2 C 21.1971 31.5698 21.0367 0
690 2 C 21.0228 33.0596 22.9408 0
691 2 C 22.4192 33.0651 23.0598 0
727 6 O 24.7726 33.2054 20.2014 0
728 9 O 24.6131 32.3478 22.3061 0
648 3 H 27.1196 33.4813 19.3245 0
680 2 C 27.5861 33.0229 20.1875 0
682 2 C 27.4596 31.9908 22.3732 0
478 3 H 34.3461 36.2572 19.8023 0
645 11 Zn 34.288 31.9209 20.4925 0
647 3 H 29.5366 33.2093 19.3314 0
650 3 H 29.3242 31.3623 23.2325 0
677 2 C 31.0076 32.0543 21.3127 0
678 2 C 29.623 32.2618 21.2875 0
679 2 C 28.9749 32.8666 20.192 0
683 2 C 28.8514 31.8323 22.3778 0
723 4 N 31.7189 32.3978 20.4028 0
655 3 H 33.07 30.6409 19.1164 0
674 3 H 34.1448 32.9746 25.2103 0
734 7 O 35.1449 32.2993 22.9648 0
717 2 C 35.1055 33.054 25.7034 0
519 2 C 36.4969 36.2372 20.107 0
285 3 H 41.7807 33.6887 23.6109 0
320 2 C 41.7456 32.3289 21.9266 0
646 10 Zn 37.567 31.8396 20.8804 0
664 3 H 37.6229 33.2583 20.6205 0
665 3 H 37.6184 31.585 19.5033 0
673 3 H 38.4594 32.6848 25.181 0
676 3 H 36.1845 31.8955 20.8076 0
689 2 C 40.3494 32.3542 21.8235 0
716 2 C 36.2959 32.7633 25.011 0
719 2 C 36.2673 32.3953 23.5762 0
720 2 C 36.8759 32.1506 17.9242 0
721 2 C 36.5684 34.773 20.3216 0
724 4 N 39.7696 31.7035 20.9919 0
729 8 O 37.6622 31.3493 18.5809 0
730 7 O 37.3716 32.2357 22.95 0
731 8 O 37.7365 34.1924 20.4506 0
733 7 O 35.4718 34.1178 20.3331 0
735 7 O 35.6941 32.4134 18.3427 0
715 2 C 37.524 32.8921 25.686 0
118 3 H 12.661 14.4796 27.3767 0
486 3 H 34.0121 14.469 27.3884 0
46 2 C -0.163815 18.1112 34.1408 0
47 2 C 1.22625 18.1891 34.0281 0
5 3 H 5.60595 19.2332 33.5781 0
9 3 H -0.703484 17.4706 33.4538 0
10 3 H 1.73375 17.6148 33.2634 0
6 3 H 8.03774 19.1066 33.3448 0
116 3 H 11.8799 15.8493 29.0902 0
117 3 H 12.3303 16.4802 31.4123 0
158 2 C 12.8321 16.3028 29.3341 0
173 4 N 12.9571 15.0703 26.5864 0
159 2 C 13.0873 16.6705 30.6618 0
119 3 H 13.5067 17.9327 25.878 0
160 1 C 13.5573 16.1685 26.911 0
21 3 H 15.9575 18.0443 33.6437 0
76 2 C 14.6051 17.6545 32.4139 0
85 8 O 15.8232 18.0388 32.6996 0
91 7 O 13.6677 17.6164 33.2877 0
377 3 H 20.6462 17.4827 33.4414 0
114 3 H 16.2152 17.9676 30.2398 0
115 3 H 15.7652 17.3347 27.936 0
154 2 C 14.3093 17.2726 31.0128 0
155 2 C 15.2644 17.5042 30.0078 0
156 2 C 15.0071 17.1437 28.6859 0
157 2 C 13.7942 16.5336 28.3344 0
174 5 N 14.0819 17.0592 25.8989 0
414 2 C 21.1855 18.1189 34.1328 0
415 2 C 22.5758 18.1962 34.0223 0
373 3 H 26.9574 19.2394 33.5846 0
378 3 H 23.0838 17.6259 33.2548 0
541 4 N 34.3079 15.0598 26.598 0
374 3 H 29.3895 19.1136 33.3546 0
459 7 O 35.0155 17.6084 33.2989 0
484 3 H 33.2296 15.8387 29.1015 0
485 3 H 33.6792 16.4705 31.4236 0
526 2 C 34.1815 16.2928 29.3455 0
527 2 C 34.4362 16.6611 30.6732 0
487 3 H 34.8559 17.9228 25.8897 0
525 2 C 35.1436 16.524 28.346 0
528 1 C 34.9073 16.1585 26.9226 0
389 3 H 37.305 18.0373 33.6551 0
444 2 C 35.953 17.6466 32.4252 0
453 8 O 37.1707 18.0319 32.711 0
482 3 H 37.5633 17.96 30.2515 0
483 3 H 37.1142 17.3262 27.9477 0
522 2 C 35.6577 17.264 31.0243 0
523 2 C 36.6128 17.4959 30.0194 0
524 2 C 36.3561 17.1349 28.6976 0
542 5 N 35.4314 17.0494 25.9105 0
307 3 H 12.8767 33.7411 27.5315 0
300 3 H 12.7223 32.9527 32.0953 0
302 3 H 13.7064 31.5977 30.5407 0
342 2 C 13.5975 33.5214 32.3818 0
343 2 C 13.6799 34.0152 33.6891 0
303 3 H 14.6007 35.0784 29.033 0
357 4 N 14.0393 32.1573 29.7429 0
350 2 C 13.7992 33.4936 27.0213 0
298 3 H 16.6743 35.6304 33.4426 0
299 3 H 16.528 34.7717 31.1695 0
304 3 H 17.1699 33.4492 27.498 0
338 2 C 14.7855 34.7844 34.0942 0
339 2 C 15.8086 35.0418 33.1659 0
340 2 C 15.7252 34.5503 31.8622 0
341 2 C 14.6221 33.7838 31.4544 0
344 1 C 14.546 33.3091 30.0425 0
345 2 C 15.0313 33.6353 27.6814 0
346 2 C 16.2147 33.3307 27.0019 0
358 5 N 15.1087 34.1636 29.0173 0
668 3 H 34.0686 32.9455 32.1074 0
670 3 H 35.0527 31.5902 30.553 0
710 2 C 34.9439 33.5141 32.3939 0
711 2 C 35.0261 34.0082 33.701 0
725 4 N 35.3858 32.1497 29.7552 0
675 3 H 34.2239 33.7335 27.5433 0
718 2 C 35.1465 33.4858 27.0334 0
671 3 H 35.9478 35.0707 29.045 0
712 1 C 35.8927 33.3015 30.0548 0
666 3 H 38.0207 35.6232 33.4547 0
667 3 H 37.8746 34.764 31.1817 0
672 3 H 38.5171 33.4407 27.5108 0
706 2 C 36.1317 34.7774 34.1062 0
707 2 C 37.1549 35.0346 33.178 0
708 2 C 37.0717 34.5429 31.8744 0
709 2 C 35.9686 33.7764 31.4666 0
713 2 C 36.3785 33.6273 27.6936 0
714 2 C 37.5619 33.3224 27.0145 0
726 5 N 36.4557 34.1557 29.0295 0
ITEM: TIMESTEP
2500
ITEM: NUMBER OF ATOMS
736
ITEM: BOX BOUNDS xy xz yz pp pp pp
1.2585022371737509e-01 4.4793911179516279e+01 2.3425829970395373e-01
-1.4232869955978766e+00 3.5516139471572068e+01 1.9894121735293497e+00
-9.5522533688274791e-03 3.4292291743368878e+01 -1.0412182140259740e+00
ITEM: ATOMS id type element x y z q
18 3 H 14.1836 2.01445 3.4689 0
19 3 H 13.9376 4.43295 3.23777 0
55 2 C 15.8044 6.15826 2.56867 0
56 2 C 15.9952 4.77744 2.66453 0
59 2 C 16.2873 1.9821 2.93505 0
60 2 C 15.0461 2.59911 3.17388 0
61 2 C 14.9041 3.98264 3.04091 0
261 2 C 16.4422 0.517707 3.07883 0
273 7 O 15.4011 -0.190384 3.3024 0
16 3 H 18.1058 4.74168 2.12954 0
17 3 H 18.3496 2.33406 2.36259 0
57 2 C 17.2393 4.16007 2.41976 0
58 2 C 17.381 2.77803 2.55576 0
271 8 O 17.641 -0.000759892 2.99157 0
54 2 C 16.7067 6.96721 2.24252 0
386 3 H 35.4052 2.00726 3.47814 0
387 3 H 35.1593 4.42578 3.24726 0
428 2 C 36.2679 2.59197 3.18396 0
429 2 C 36.126 3.97551 3.05115 0
641 7 O 36.6227 -0.197441 3.3124 0
384 3 H 39.3285 4.73474 2.14259 0
385 3 H 39.5721 2.32708 2.37538 0
423 2 C 37.0267 6.15115 2.57988 0
424 2 C 37.2174 4.77036 2.67581 0
425 2 C 38.4617 4.15307 2.43199 0
426 2 C 38.6033 2.77101 2.56783 0
427 2 C 37.5092 1.97503 2.94602 0
629 2 C 37.664 0.510642 3.08966 0
639 8 O 38.8628 -0.0078442 3.00331 0
422 2 C 37.9291 6.96008 2.25438 0
40 2 C 5.33129 16.1823 2.56094 0
83 6 O 4.7707 16.3021 3.70625 0
37 2 C 6.80929 16.0942 2.49568 0
43 2 C 1.1341 17.084 2.32028 0
41 2 C 3.20742 16.0614 1.55051 0
84 9 O 4.61328 16.0169 1.4487 0
4 3 H 7.12315 16.7425 4.54165 0
36 2 C 7.58902 16.4115 3.62178 0
38 2 C 7.45479 15.67 1.321 0
46 2 C 1.06608 15.0538 0.99854 0
47 2 C 2.46155 15.0613 0.91684 0
9 3 H 0.522102 14.2513 0.515058 0
13 3 H 14.4272 8.38699 2.77347 0
12 3 H 14.2286 10.8087 2.72848 0
39 2 C 8.84911 15.5521 1.27869 0
11 3 H 12.9231 14.6982 4.48259 0
3 3 H 9.54812 16.5439 4.46881 0
33 2 C 11.0135 15.7023 2.33118 0
34 2 C 9.62577 15.8595 2.40545 0
35 2 C 8.981 16.2981 3.5791 0
79 4 N 11.7342 15.9481 3.26447 0
1 11 Zn 14.2703 15.5236 2.89037 0
51 2 C 16.5231 8.35133 2.18253 0
48 2 C 16.2834 11.1641 2.13145 0
49 2 C 15.1804 10.362 2.46896 0
50 2 C 15.2955 8.97143 2.49427 0
78 2 C 16.1703 12.6384 2.16023 0
88 7 O 17.1697 13.3569 1.82403 0
92 7 O 15.0834 13.1773 2.55227 0
14 3 H 18.5737 8.69976 1.58657 0
15 3 H 18.371 11.1349 1.54181 0
52 2 C 17.6183 9.1515 1.82866 0
53 2 C 17.5018 10.5441 1.80299 0
2 10 Zn 17.3983 15.4763 1.87539 0
29 3 H 16.0451 14.4096 7.30357 0
90 7 O 15.9028 15.3166 4.86434 0
32 3 H 16.0672 15.6021 2.21767 0
71 2 C 17.0905 14.675 7.40082 0
75 2 C 17.1748 15.2816 4.96575 0
20 3 H 17.5029 16.8987 1.93478 0
70 2 C 17.7167 14.5223 8.64305 0
45 2 C 20.2251 16.0679 1.86477 0
80 4 N 19.5207 15.2467 1.33621 0
86 7 O 17.9129 15.3519 3.92899 0
30 3 H 19.7592 15.8308 5.61674 0
72 2 C 17.815 15.1463 6.2925 0
73 2 C 19.1738 15.4686 6.45317 0
74 2 C 19.7937 15.3328 7.69649 0
31 3 H 20.8412 15.5902 7.79156 0
69 2 C 19.0719 14.8608 8.80529 0
412 2 C 21.6128 16.0656 1.71272 0
411 2 C 22.3573 17.0853 2.32267 0
21 3 H 17.0019 15.5508 0.515852 0
414 2 C 22.2896 15.0611 0.991687 0
451 6 O 25.992 16.2958 3.70956 0
409 2 C 24.4309 16.0648 1.55098 0
452 9 O 25.8369 16.0198 1.45071 0
408 2 C 26.5538 16.1802 2.56441 0
372 3 H 28.3439 16.7318 4.54913 0
405 2 C 28.0318 16.0913 2.50043 0
404 2 C 28.8105 16.4038 3.62853 0
406 2 C 28.6783 15.671 1.32488 0
415 2 C 23.6852 15.068 0.91182 0
380 3 H 35.4504 10.8014 2.7381 0
381 3 H 35.6492 8.3797 2.78363 0
417 2 C 36.4024 10.3547 2.47933 0
418 2 C 36.5176 8.96417 2.50495 0
460 7 O 36.3053 13.1698 2.56263 0
379 3 H 34.1438 14.6911 4.49178 0
371 3 H 30.7688 16.5319 4.47811 0
401 2 C 32.236 15.6974 2.33882 0
402 2 C 30.8482 15.8551 2.41231 0
403 2 C 30.2025 16.2897 3.58691 0
447 4 N 32.9559 15.9394 3.27374 0
407 2 C 30.0725 15.5523 1.28361 0
369 11 Zn 35.4921 15.5155 2.89993 0
458 7 O 37.1245 15.3093 4.87383 0
419 2 C 37.7455 8.34415 2.19416 0
382 3 H 39.7965 8.69262 1.59953 0
383 3 H 39.5936 11.1277 1.55421 0
416 2 C 37.5056 11.1567 2.14243 0
420 2 C 38.8409 9.14432 1.84091 0
421 2 C 38.7242 10.5369 1.81491 0
446 2 C 37.3923 12.631 2.17083 0
456 7 O 38.3916 13.3496 1.83448 0
397 3 H 37.2674 14.4027 7.31311 0
370 10 Zn 38.6198 15.469 1.88463 0
413 2 C 41.4464 16.0633 1.86948 0
448 4 N 40.742 15.2392 1.3454 0
400 3 H 37.2887 15.5949 2.22679 0
44 2 C 0.38957 16.0611 1.71588 0
439 2 C 38.3125 14.669 7.41044 0
443 2 C 38.3965 15.2752 4.97525 0
454 7 O 39.1345 15.3459 3.93845 0
388 3 H 38.7242 16.8914 1.94315 0
398 3 H 40.9804 15.8269 5.62649 0
440 2 C 39.0368 15.1407 6.3021 0
441 2 C 40.3953 15.4644 6.46291 0
442 2 C 41.0151 15.3295 7.70639 0
438 2 C 38.9387 14.5172 8.6528 0
399 3 H 42.0623 15.5878 7.80156 0
437 2 C 40.2935 14.857 8.81519 0
389 3 H 38.2234 15.5426 0.525118 0
7 3 H 3.08008 17.9019 2.69337 0
8 3 H 0.636559 17.8761 2.86847 0
42 2 C 2.52948 17.0943 2.22851 0
202 3 H 14.5352 20.0729 3.21389 0