Created by Ryther's code on 2025-07-29 22:46:52.275726, modified by xyan11@uic.edu. 

    424 atoms
    488 bonds
    920 angles
    840 dihedrals
    160 impropers

    7 atom types
    11 bond types
    18 angle types
    4 dihedral types
    2 improper types

0.00000000 22.63732972 xlo xhi
0.00000000 30.97196506 ylo yhi
0.00000000 21.19944015 zlo zhi
-0.79969013 0.31591436 2.61330635 xy xz yz 

Masses 

    1    12.0107  #   C
    2    12.0107  #   C
    3    12.0107  #   C
    4    1.00794  #   H
    5    14.0067  #   N
    6    15.9994  #   O
    7      65.38  #  Zn

Pair Coeffs

    1       0.10500      3.43085  #  C_1 C_1
    2       0.10500      3.43085  #  C_3 C_3
    3       0.10500      3.43085  #  C_R C_R
    4       0.04400      2.57113  #  H_ H_
    5       0.06900      3.26069  #  N_2 N_2
    6       0.06000      3.11815  #  O_2_M O_2_M
    7       0.06000      2.58361  #  Zn6f3 Zn6f3

Bond Coeffs

    1      54.94924      2.40433  #  O_2_M Zn6f3 bond order=0.5
    2      24.34887      2.13340  #  H_ Zn6f3 bond order=0.5
    3      55.07699      2.48452  #  N_2 Zn6f3 bond order=0.5
    4     331.06939      1.10940  #  C_3 H_ bond order=1.0
    5     357.44038      1.08142  #  C_R H_ bond order=1.0
    6     978.49444      1.18180  #  C_1 N_2 bond order=3.0
    7     387.66747      1.46300  #  C_1 C_3 bond order=1.0
    8     349.79590      1.51400  #  C_3 C_3 bond order=1.0
    9     462.65505      1.37926  #  C_R C_R bond order=1.5
    10    391.66951      1.45800  #  C_R C_R bond order=1.0
    11    714.55744      1.26901  #  C_R O_2_M bond order=1.5

Angle Coeffs

    1  cosine/periodic         24.38538            1            4  #  H_ Zn6f3 O_2_M
    2  cosine/periodic         70.47472            1            4  #  N_2 Zn6f3 O_2_M
    3  cosine/periodic         67.02484            1            4  #  O_2_M Zn6f3 O_2_M
    4  cosine/periodic         25.39208            1            4  #  H_ Zn6f3 N_2
    5  cosine/periodic          4.27473            1            1  #  Zn6f3 H_ Zn6f3
    6  cosine/periodic         87.29919            1            1  #  C_3 C_1 N_2
    7  fourier                117.31542      0.34375      0.37500      0.28125  #  C_3 C_3 H_
    8  fourier                225.28003      0.34375      0.37500      0.28125  #  C_1 C_3 C_3
    9  fourier                 75.49653      0.34375      0.37500      0.28125  #  H_ C_3 H_
    10 fourier                125.57576      0.34375      0.37500      0.28125  #  C_1 C_3 H_
    11 cosine/periodic         57.28902           -1            3  #  C_R C_R H_
    12 cosine/periodic         51.62857           -1            3  #  C_R C_R H_
    13 cosine/periodic        102.18328           -1            3  #  C_R C_R C_R
    14 cosine/periodic        111.29751           -1            3  #  C_R C_R C_R
    15 cosine/periodic        137.71425           -1            3  #  C_R C_R O_2_M
    16 cosine/periodic        206.77843           -1            3  #  O_2_M C_R O_2_M
    17 fourier                 48.37175      0.36401      0.41847      0.28800  #  C_1 N_2 Zn6f3
    18 cosine/periodic         21.77718           -1            3  #  C_R O_2_M Zn6f3

Dihedral Coeffs

    1       0.11772            1            3  #  X C_3 C_3 X bond order=1.0
    2       3.36856           -1            2  #  X C_R C_R X bond order=1.5
    3       1.25000           -1            2  #  X C_R C_R X bond order=1.0
    4       6.73711           -1            2  #  X C_R O_2_M X bond order=1.5

Improper Coeffs

    1       2.00000      1.00000     -1.00000      0.00000            1  #  C_R X X X O_2 present=False
    2      16.66667      1.00000     -1.00000      0.00000            1  #  C_R X X X O_2 present=True

Atoms # a, b, c, alpha, beta, gamma: 22.6373297190, 30.9822872640, 21.3622432009, 82.9976246927, 89.1526536215, 91.4790372904 $$$atoms$$$

    1 1     7      0.00000      2.81951     15.94833      5.62416   #   Zn1   0.13824884   0.49254293   0.26529741
    2 1     7      0.00000      5.74746     16.05384      5.56748   #   Zn2   0.26775597   0.49617519   0.26262374
    3 1     4      0.00000     10.10119     15.57913      8.07656   #    H1   0.45753521   0.47086186   0.38098001
    4 1     4      0.00000      0.17440      1.55805      8.40390   #    H2   0.00276728   0.01685658   0.39642087
    5 1     4      0.00000     10.18429      2.81558      6.61579   #    H3   0.44781519   0.06457579   0.31207364
    6 1     4      0.00000      9.19226      2.27838      8.01739   #    H4   0.40226007   0.04165250   0.37818883
    7 1     4      0.00000      4.36521     15.46662      6.05941   #    H5   0.20563247   0.47525759   0.28582899
    8 1     4      0.00000      4.64698     11.89047      6.81210   #    H6   0.21339948   0.35679785   0.32133391
    9 1     4      0.00000      3.98150     11.28767      3.88631   #    H7   0.18565186   0.34897999   0.18332130
   10 1     4      0.00000      5.60760      9.90933      7.06279   #    H8   0.25337481   0.29183440   0.33315905
   11 1     4      0.00000      5.74660      7.54378      7.60614   #    H9   0.25638295   0.21329459   0.35878960
   12 1     4      0.00000      3.35935      6.60686      4.12885   #   H10   0.15263585   0.19688416   0.19476220
   13 1     4      0.00000      3.22035      8.97241      3.58550   #   H11   0.14962780   0.27542397   0.16913165
   14 1     4      0.00000      4.98546      5.22852      7.30533   #   H12   0.22035902   0.13973856   0.34459991
   15 1     4      0.00000      4.31996      4.62572      4.37954   #   H13   0.19261069   0.13192060   0.20658745
   16 1     4      0.00000      2.56704     14.12328      1.70102   #   H14   0.12814836   0.44923181   0.08023875
   17 1     4      0.00000      2.68890     15.13136      9.87866   #   H15   0.12814834   0.44923183   0.46598674
   18 1     4      0.00000      6.39924      2.39241      9.49112   #   H16   0.27783174   0.03946834   0.44770619
   19 1     4      0.00000      6.27737      1.38422      1.31263   #   H17   0.27783171   0.03946833   0.06191837
   20 1     1      0.00000      0.10380     16.15471      6.52700   #    C1   0.01779693   0.49561290   0.30788568
   21 1     2      0.00000     10.91115      1.02201      7.62468   #    C2   0.47707236   0.00265069   0.35966414
   22 1     2      0.00000      9.77418      1.92548      7.13990   #    C3   0.42826457   0.03375078   0.33679676
   23 1     1      0.00000      8.86301      1.20619      6.23862   #    C4   0.38791365   0.01411401   0.29428212
   24 1     3      0.00000      4.42819     12.07972      5.77069   #    C5   0.20478208   0.36705296   0.27220962
   25 1     3      0.00000      4.26048     11.06530      4.91008   #    C6   0.19690405   0.33772549   0.23161355
   26 1     3      0.00000      4.37969      9.63487      5.28717   #    C7   0.20023756   0.29003988   0.24940140
   27 1     3      0.00000      5.09615      9.20616      6.42072   #    C8   0.23049229   0.27168627   0.30287215
   28 1     3      0.00000      5.18853      7.84560      6.72784   #    C9   0.23277617   0.22653543   0.31735940
   29 1     3      0.00000      4.58726      6.88133      5.90446   #   C10   0.20577314   0.19867865   0.27851985
   30 1     3      0.00000      3.87081      7.31004      4.77091   #   C11   0.17551846   0.21703226   0.22504910
   31 1     3      0.00000      3.77842      8.67059      4.46379   #   C12   0.17323449   0.26218310   0.21056186
   32 1     3      0.00000      4.70648      5.45089      6.28156   #   C13   0.20910670   0.15099304   0.29630771
   33 1     3      0.00000      4.53876      4.43647      5.42094   #   C14   0.20122836   0.12166553   0.25571169
   34 1     3      0.00000      4.22546     15.52057      1.69782   #   C15   0.20300524   0.49435924   0.08008804
   35 1     3      0.00000      3.28681     14.66315      1.09838   #   C16   0.16104151   0.46906143   0.05181172
   36 1     3      0.00000      3.42410     15.79879     10.31079   #   C17   0.16104147   0.46906146   0.48637065
   37 1     3      0.00000      4.34164     16.48160      9.49381   #   C18   0.20300520   0.49435926   0.44783326
   38 1     3      0.00000      5.67937      1.85239     10.09329   #   C19   0.24493429   0.01963611   0.47611130
   39 1     3      0.00000      5.54208      0.71677      0.88099   #   C20   0.24493429   0.01963610   0.04155745
   40 1     3      0.00000      4.32161     16.24675      8.02258   #   C21   0.20302801   0.49263214   0.37843348
   41 1     3      0.00000      4.24539     15.75543      3.16905   #   C22   0.20297820   0.49608657   0.14948767
   42 1     3      0.00000      4.59258      2.94751      5.43416   #   C23   0.20189706   0.07353825   0.25633506
   43 1     3      0.00000      4.37427     13.56868      5.75747   #   C24   0.20410911   0.41517994   0.27158616
   44 1     5      0.00000      0.82127     15.87631      5.66273   #    N1   0.04986391   0.49006435   0.26711704
   45 1     5      0.00000      7.74570     16.12594      5.52879   #    N2   0.35614083   0.49865733   0.26079877
   46 1     6      0.00000      5.36323     15.87424      3.64131   #    O1   0.25211644   0.49804281   0.17176429
   47 1     6      0.00000      5.42602     16.20801      7.50730   #    O2   0.25218270   0.49343238   0.35412744
   48 1     6      0.00000      5.72179      2.48785      5.41714   #    O3   0.25126878   0.05876506   0.25553208
   49 1     6      0.00000      5.46731     14.10842      5.73147   #    O4   0.25303031   0.43271012   0.27035960
   50 1     6      0.00000      3.49951      2.40777      5.46016   #    O5   0.15297445   0.05600800   0.25756155
   51 1     6      0.00000      3.20375     16.12794      7.55033   #    O6   0.15388836   0.49067584   0.35615684
   52 1     6      0.00000      3.14095     15.79416      3.68431   #    O7   0.15382210   0.49528625   0.17379294
   53 1     6      0.00000      3.24503     14.02834      5.77448   #    O8   0.15473597   0.42995356   0.27238829
   54 1     7      0.00000      2.97747     17.25498     16.22388   #   Zn1   0.13824884   0.49254293   0.76529741
   55 1     7      0.00000      5.90542     17.36049     16.16720   #   Zn2   0.26775597   0.49617519   0.76262374
   56 1     4      0.00000     10.25915     16.88579     18.67628   #    H1   0.45753521   0.47086186   0.88098001
   57 1     4      0.00000      0.33236      2.86470     19.00362   #    H2   0.00276728   0.01685658   0.89642087
   58 1     4      0.00000     10.34225      4.12224     17.21551   #    H3   0.44781519   0.06457579   0.81207364
   59 1     4      0.00000      9.35022      3.58504     18.61711   #    H4   0.40226007   0.04165250   0.87818883
   60 1     4      0.00000      4.52317     16.77327     16.65913   #    H5   0.20563247   0.47525759   0.78582899
   61 1     4      0.00000      4.80494     13.19713     17.41182   #    H6   0.21339948   0.35679785   0.82133391
   62 1     4      0.00000      4.13946     12.59432     14.48603   #    H7   0.18565186   0.34897999   0.68332130
   63 1     4      0.00000      5.76556     11.21598     17.66251   #    H8   0.25337481   0.29183440   0.83315905
   64 1     4      0.00000      5.90456      8.85043     18.20586   #    H9   0.25638295   0.21329459   0.85878960
   65 1     4      0.00000      3.51731      7.91352     14.72857   #   H10   0.15263585   0.19688416   0.69476220
   66 1     4      0.00000      3.37831     10.27907     14.18522   #   H11   0.14962780   0.27542397   0.66913165
   67 1     4      0.00000      5.14341      6.53518     17.90505   #   H12   0.22035902   0.13973856   0.84459991
   68 1     4      0.00000      4.47792      5.93237     14.97926   #   H13   0.19261069   0.13192060   0.70658745
   69 1     4      0.00000      2.72500     15.42993     12.30074   #   H14   0.12814836   0.44923181   0.58023875
   70 1     4      0.00000      2.84686     16.43801     20.47838   #   H15   0.12814834   0.44923183   0.96598674
   71 1     4      0.00000      6.55720      3.69906     20.09084   #   H16   0.27783174   0.03946834   0.94770619
   72 1     4      0.00000      6.43532      2.69088     11.91235   #   H17   0.27783171   0.03946833   0.56191837
   73 1     1      0.00000      0.26176     17.46136     17.12672   #    C1   0.01779693   0.49561290   0.80788568
   74 1     2      0.00000     11.06910      2.32866     18.22440   #    C2   0.47707236   0.00265069   0.85966414
   75 1     2      0.00000      9.93213      3.23213     17.73962   #    C3   0.42826457   0.03375078   0.83679676
   76 1     1      0.00000      9.02097      2.51284     16.83834   #    C4   0.38791365   0.01411401   0.79428212
   77 1     3      0.00000      4.58614     13.38637     16.37041   #    C5   0.20478208   0.36705296   0.77220962
   78 1     3      0.00000      4.41843     12.37195     15.50980   #    C6   0.19690405   0.33772549   0.73161355
   79 1     3      0.00000      4.53765     10.94152     15.88689   #    C7   0.20023756   0.29003988   0.74940140
   80 1     3      0.00000      5.25410     10.51281     17.02044   #    C8   0.23049229   0.27168627   0.80287215
   81 1     3      0.00000      5.34649      9.15226     17.32756   #    C9   0.23277617   0.22653543   0.81735940
   82 1     3      0.00000      4.74522      8.18798     16.50418   #   C10   0.20577314   0.19867865   0.77851985
   83 1     3      0.00000      4.02876      8.61669     15.37064   #   C11   0.17551846   0.21703226   0.72504910
   84 1     3      0.00000      3.93638      9.97724     15.06351   #   C12   0.17323449   0.26218310   0.71056186
   85 1     3      0.00000      4.86443      6.75755     16.88128   #   C13   0.20910670   0.15099304   0.79630771
   86 1     3      0.00000      4.69672      5.74313     16.02066   #   C14   0.20122836   0.12166553   0.75571169
   87 1     3      0.00000      4.38342     16.82722     12.29754   #   C15   0.20300524   0.49435924   0.58008804
   88 1     3      0.00000      3.44477     15.96981     11.69810   #   C16   0.16104151   0.46906143   0.55181172
   89 1     3      0.00000      3.58205     17.10544     20.91051   #   C17   0.16104147   0.46906146   0.98637065
   90 1     3      0.00000      4.49960     17.78826     20.09353   #   C18   0.20300520   0.49435926   0.94783326
   91 1     3      0.00000      5.83732      3.15905     20.69301   #   C19   0.24493429   0.01963611   0.97611130
   92 1     3      0.00000      5.70004      2.02342     11.48071   #   C20   0.24493429   0.01963610   0.54155745
   93 1     3      0.00000      4.47957     17.55340     18.62230   #   C21   0.20302801   0.49263214   0.87843348
   94 1     3      0.00000      4.40335     17.06209     13.76877   #   C22   0.20297820   0.49608657   0.64948767
   95 1     3      0.00000      4.75054      4.25416     16.03388   #   C23   0.20189706   0.07353825   0.75633506
   96 1     3      0.00000      4.53223     14.87533     16.35719   #   C24   0.20410911   0.41517994   0.77158616
   97 1     5      0.00000      0.97923     17.18297     16.26245   #    N1   0.04986391   0.49006435   0.76711704
   98 1     5      0.00000      7.90365     17.43260     16.12851   #    N2   0.35614083   0.49865733   0.76079877
   99 1     6      0.00000      5.52118     17.18089     14.24103   #    O1   0.25211644   0.49804281   0.67176429
  100 1     6      0.00000      5.58398     17.51467     18.10702   #    O2   0.25218270   0.49343238   0.85412744
  101 1     6      0.00000      5.87974      3.79451     16.01686   #    O3   0.25126878   0.05876506   0.75553208
  102 1     6      0.00000      5.62526     15.41507     16.33119   #    O4   0.25303031   0.43271012   0.77035960
  103 1     6      0.00000      3.65747      3.71442     16.05988   #    O5   0.15297445   0.05600800   0.75756155
  104 1     6      0.00000      3.36171     17.43459     18.15005   #    O6   0.15388836   0.49067584   0.85615684
  105 1     6      0.00000      3.29891     17.10082     14.28403   #    O7   0.15382210   0.49528625   0.67379294
  106 1     6      0.00000      3.40299     15.33499     16.37420   #    O8   0.15473597   0.42995356   0.77238829
  107 1     7      0.00000      2.41967     31.43431      5.62416   #   Zn1   0.13824884   0.99254293   0.26529741
  108 1     7      0.00000      5.34762     31.53982      5.56748   #   Zn2   0.26775597   0.99617519   0.26262374
  109 1     4      0.00000      9.70134     31.06512      8.07656   #    H1   0.45753521   0.97086186   0.38098001
  110 1     4      0.00000     -0.22545     17.04403      8.40390   #    H2   0.00276728   0.51685658   0.39642087
  111 1     4      0.00000      9.78444     18.30157      6.61579   #    H3   0.44781519   0.56457579   0.31207364
  112 1     4      0.00000      8.79242     17.76437      8.01739   #    H4   0.40226007   0.54165250   0.37818883
  113 1     4      0.00000      3.96536     30.95260      6.05941   #    H5   0.20563247   0.97525759   0.28582899
  114 1     4      0.00000      4.24714     27.37646      6.81210   #    H6   0.21339948   0.85679785   0.32133391
  115 1     4      0.00000      3.58166     26.77365      3.88631   #    H7   0.18565186   0.84897999   0.18332130
  116 1     4      0.00000      5.20776     25.39531      7.06279   #    H8   0.25337481   0.79183440   0.33315905
  117 1     4      0.00000      5.34676     23.02976      7.60614   #    H9   0.25638295   0.71329459   0.35878960
  118 1     4      0.00000      2.95950     22.09285      4.12885   #   H10   0.15263585   0.69688416   0.19476220
  119 1     4      0.00000      2.82051     24.45840      3.58550   #   H11   0.14962780   0.77542397   0.16913165
  120 1     4      0.00000      4.58561     20.71451      7.30533   #   H12   0.22035902   0.63973856   0.34459991
  121 1     4      0.00000      3.92011     20.11170      4.37954   #   H13   0.19261069   0.63192060   0.20658745
  122 1     4      0.00000      2.16719     29.60926      1.70102   #   H14   0.12814836   0.94923181   0.08023875
  123 1     4      0.00000      2.28906     30.61734      9.87866   #   H15   0.12814834   0.94923183   0.46598674
  124 1     4      0.00000      5.99940     17.87839      9.49112   #   H16   0.27783174   0.53946834   0.44770619
  125 1     4      0.00000      5.87752     16.87021      1.31263   #   H17   0.27783171   0.53946833   0.06191837
  126 1     1      0.00000     -0.29604     31.64069      6.52700   #    C1   0.01779693   0.99561290   0.30788568
  127 1     2      0.00000     10.51130     16.50799      7.62468   #    C2   0.47707236   0.50265069   0.35966414
  128 1     2      0.00000      9.37433     17.41146      7.13990   #    C3   0.42826457   0.53375078   0.33679676
  129 1     1      0.00000      8.46317     16.69217      6.23862   #    C4   0.38791365   0.51411401   0.29428212
  130 1     3      0.00000      4.02834     27.56570      5.77069   #    C5   0.20478208   0.86705296   0.27220962
  131 1     3      0.00000      3.86063     26.55128      4.91008   #    C6   0.19690405   0.83772549   0.23161355
  132 1     3      0.00000      3.97985     25.12085      5.28717   #    C7   0.20023756   0.79003988   0.24940140
  133 1     3      0.00000      4.69630     24.69214      6.42072   #    C8   0.23049229   0.77168627   0.30287215
  134 1     3      0.00000      4.78869     23.33159      6.72784   #    C9   0.23277617   0.72653543   0.31735940
  135 1     3      0.00000      4.18742     22.36731      5.90446   #   C10   0.20577314   0.69867865   0.27851985
  136 1     3      0.00000      3.47096     22.79602      4.77091   #   C11   0.17551846   0.71703226   0.22504910
  137 1     3      0.00000      3.37858     24.15657      4.46379   #   C12   0.17323449   0.76218310   0.21056186
  138 1     3      0.00000      4.30663     20.93688      6.28156   #   C13   0.20910670   0.65099304   0.29630771
  139 1     3      0.00000      4.13892     19.92246      5.42094   #   C14   0.20122836   0.62166553   0.25571169
  140 1     3      0.00000      3.82562     31.00655      1.69782   #   C15   0.20300524   0.99435924   0.08008804
  141 1     3      0.00000      2.88697     30.14914      1.09838   #   C16   0.16104151   0.96906143   0.05181172
  142 1     3      0.00000      3.02425     31.28477     10.31079   #   C17   0.16104147   0.96906146   0.48637065
  143 1     3      0.00000      3.94179     31.96759      9.49381   #   C18   0.20300520   0.99435926   0.44783326
  144 1     3      0.00000      5.27952     17.33838     10.09329   #   C19   0.24493429   0.51963611   0.47611130
  145 1     3      0.00000      5.14224     16.20275      0.88099   #   C20   0.24493429   0.51963610   0.04155745
  146 1     3      0.00000      3.92177     31.73273      8.02258   #   C21   0.20302801   0.99263214   0.37843348
  147 1     3      0.00000      3.84555     31.24142      3.16905   #   C22   0.20297820   0.99608657   0.14948767
  148 1     3      0.00000      4.19274     18.43349      5.43416   #   C23   0.20189706   0.57353825   0.25633506
  149 1     3      0.00000      3.97442     29.05466      5.75747   #   C24   0.20410911   0.91517994   0.27158616
  150 1     5      0.00000      0.42143     31.36230      5.66273   #    N1   0.04986391   0.99006435   0.26711704
  151 1     5      0.00000      7.34585     31.61193      5.52879   #    N2   0.35614083   0.99865733   0.26079877
  152 1     6      0.00000      4.96338     31.36022      3.64131   #    O1   0.25211644   0.99804281   0.17176429
  153 1     6      0.00000      5.02618     31.69400      7.50730   #    O2   0.25218270   0.99343238   0.35412744
  154 1     6      0.00000      5.32194     17.97384      5.41714   #    O3   0.25126878   0.55876506   0.25553208
  155 1     6      0.00000      5.06746     29.59440      5.73147   #    O4   0.25303031   0.93271012   0.27035960
  156 1     6      0.00000      3.09967     17.89375      5.46016   #    O5   0.15297445   0.55600800   0.25756155
  157 1     6      0.00000      2.80390     31.61392      7.55033   #    O6   0.15388836   0.99067584   0.35615684
  158 1     6      0.00000      2.74110     31.28015      3.68431   #    O7   0.15382210   0.99528625   0.17379294
  159 1     6      0.00000      2.84519     29.51432      5.77448   #    O8   0.15473597   0.92995356   0.27238829
  160 1     7      0.00000      2.57763     32.74096     16.22388   #   Zn1   0.13824884   0.99254293   0.76529741
  161 1     7      0.00000      5.50557     32.84647     16.16720   #   Zn2   0.26775597   0.99617519   0.76262374
  162 1     4      0.00000      9.85930     32.37177     18.67628   #    H1   0.45753521   0.97086186   0.88098001
  163 1     4      0.00000     -0.06749     18.35069     19.00362   #    H2   0.00276728   0.51685658   0.89642087
  164 1     4      0.00000      9.94240     19.60822     17.21551   #    H3   0.44781519   0.56457579   0.81207364
  165 1     4      0.00000      8.95037     19.07102     18.61711   #    H4   0.40226007   0.54165250   0.87818883
  166 1     4      0.00000      4.12332     32.25926     16.65913   #    H5   0.20563247   0.97525759   0.78582899
  167 1     4      0.00000      4.40509     28.68311     17.41182   #    H6   0.21339948   0.85679785   0.82133391
  168 1     4      0.00000      3.73961     28.08031     14.48603   #    H7   0.18565186   0.84897999   0.68332130
  169 1     4      0.00000      5.36571     26.70197     17.66251   #    H8   0.25337481   0.79183440   0.83315905
  170 1     4      0.00000      5.50471     24.33642     18.20586   #    H9   0.25638295   0.71329459   0.85878960
  171 1     4      0.00000      3.11746     23.39950     14.72857   #   H10   0.15263585   0.69688416   0.69476220
  172 1     4      0.00000      2.97846     25.76505     14.18522   #   H11   0.14962780   0.77542397   0.66913165
  173 1     4      0.00000      4.74357     22.02116     17.90505   #   H12   0.22035902   0.63973856   0.84459991
  174 1     4      0.00000      4.07807     21.41835     14.97926   #   H13   0.19261069   0.63192060   0.70658745
  175 1     4      0.00000      2.32515     30.91592     12.30074   #   H14   0.12814836   0.94923181   0.58023875
  176 1     4      0.00000      2.44701     31.92399     20.47838   #   H15   0.12814834   0.94923183   0.96598674
  177 1     4      0.00000      6.15736     19.18504     20.09084   #   H16   0.27783174   0.53946834   0.94770619
  178 1     4      0.00000      6.03548     18.17686     11.91235   #   H17   0.27783171   0.53946833   0.56191837
  179 1     1      0.00000     -0.13808     32.94734     17.12672   #    C1   0.01779693   0.99561290   0.80788568
  180 1     2      0.00000     10.66926     17.81465     18.22440   #    C2   0.47707236   0.50265069   0.85966414
  181 1     2      0.00000      9.53229     18.71812     17.73962   #    C3   0.42826457   0.53375078   0.83679676
  182 1     1      0.00000      8.62112     17.99882     16.83834   #    C4   0.38791365   0.51411401   0.79428212
  183 1     3      0.00000      4.18630     28.87235     16.37041   #    C5   0.20478208   0.86705296   0.77220962
  184 1     3      0.00000      4.01859     27.85794     15.50980   #    C6   0.19690405   0.83772549   0.73161355
  185 1     3      0.00000      4.13780     26.42750     15.88689   #    C7   0.20023756   0.79003988   0.74940140
  186 1     3      0.00000      4.85426     25.99879     17.02044   #    C8   0.23049229   0.77168627   0.80287215
  187 1     3      0.00000      4.94664     24.63824     17.32756   #    C9   0.23277617   0.72653543   0.81735940
  188 1     3      0.00000      4.34537     23.67396     16.50418   #   C10   0.20577314   0.69867865   0.77851985
  189 1     3      0.00000      3.62892     24.10267     15.37064   #   C11   0.17551846   0.71703226   0.72504910
  190 1     3      0.00000      3.53653     25.46322     15.06351   #   C12   0.17323449   0.76218310   0.71056186
  191 1     3      0.00000      4.46459     22.24353     16.88128   #   C13   0.20910670   0.65099304   0.79630771
  192 1     3      0.00000      4.29687     21.22911     16.02066   #   C14   0.20122836   0.62166553   0.75571169
  193 1     3      0.00000      3.98358     32.31321     12.29754   #   C15   0.20300524   0.99435924   0.58008804
  194 1     3      0.00000      3.04493     31.45579     11.69810   #   C16   0.16104151   0.96906143   0.55181172
  195 1     3      0.00000      3.18221     32.59143     20.91051   #   C17   0.16104147   0.96906146   0.98637065
  196 1     3      0.00000      4.09975     33.27424     20.09353   #   C18   0.20300520   0.99435926   0.94783326
  197 1     3      0.00000      5.43748     18.64503     20.69301   #   C19   0.24493429   0.51963611   0.97611130
  198 1     3      0.00000      5.30020     17.50941     11.48071   #   C20   0.24493429   0.51963610   0.54155745
  199 1     3      0.00000      4.07972     33.03938     18.62230   #   C21   0.20302801   0.99263214   0.87843348
  200 1     3      0.00000      4.00351     32.54807     13.76877   #   C22   0.20297820   0.99608657   0.64948767
  201 1     3      0.00000      4.35069     19.74014     16.03388   #   C23   0.20189706   0.57353825   0.75633506
  202 1     3      0.00000      4.13238     30.36131     16.35719   #   C24   0.20410911   0.91517994   0.77158616
  203 1     5      0.00000      0.57938     32.66895     16.26245   #    N1   0.04986391   0.99006435   0.76711704
  204 1     5      0.00000      7.50381     32.91858     16.12851   #    N2   0.35614083   0.99865733   0.76079877
  205 1     6      0.00000      5.12134     32.66687     14.24103   #    O1   0.25211644   0.99804281   0.67176429
  206 1     6      0.00000      5.18414     33.00065     18.10702   #    O2   0.25218270   0.99343238   0.85412744
  207 1     6      0.00000      5.47990     19.28049     16.01686   #    O3   0.25126878   0.55876506   0.75553208
  208 1     6      0.00000      5.22542     30.90105     16.33119   #    O4   0.25303031   0.93271012   0.77035960
  209 1     6      0.00000      3.25762     19.20040     16.05988   #    O5   0.15297445   0.55600800   0.75756155
  210 1     6      0.00000      2.96186     32.92058     18.15005   #    O6   0.15388836   0.99067584   0.85615684
  211 1     6      0.00000      2.89906     32.58680     14.28403   #    O7   0.15382210   0.99528625   0.67379294
  212 1     6      0.00000      3.00314     30.82098     16.37420   #    O8   0.15473597   0.92995356   0.77238829
  213 1     7      0.00000     14.13818     15.94833      5.62416   #   Zn1   0.63824884   0.49254293   0.26529741
  214 1     7      0.00000     17.06613     16.05384      5.56748   #   Zn2   0.76775597   0.49617519   0.26262374
  215 1     4      0.00000     21.41985     15.57913      8.07656   #    H1   0.95753521   0.47086186   0.38098001
  216 1     4      0.00000     11.49306      1.55805      8.40390   #    H2   0.50276728   0.01685658   0.39642087
  217 1     4      0.00000     21.50295      2.81558      6.61579   #    H3   0.94781519   0.06457579   0.31207364
  218 1     4      0.00000     20.51092      2.27838      8.01739   #    H4   0.90226007   0.04165250   0.37818883
  219 1     4      0.00000     15.68387     15.46662      6.05941   #    H5   0.70563247   0.47525759   0.28582899
  220 1     4      0.00000     15.96565     11.89047      6.81210   #    H6   0.71339948   0.35679785   0.32133391
  221 1     4      0.00000     15.30017     11.28767      3.88631   #    H7   0.68565186   0.34897999   0.18332130
  222 1     4      0.00000     16.92627      9.90933      7.06279   #    H8   0.75337481   0.29183440   0.33315905
  223 1     4      0.00000     17.06527      7.54378      7.60614   #    H9   0.75638295   0.21329459   0.35878960
  224 1     4      0.00000     14.67801      6.60686      4.12885   #   H10   0.65263585   0.19688416   0.19476220
  225 1     4      0.00000     14.53902      8.97241      3.58550   #   H11   0.64962780   0.27542397   0.16913165
  226 1     4      0.00000     16.30412      5.22852      7.30533   #   H12   0.72035902   0.13973856   0.34459991
  227 1     4      0.00000     15.63862      4.62572      4.37954   #   H13   0.69261069   0.13192060   0.20658745