Created by Ryther's code on 2025-07-31 16:51:46.050853, modified by xyan11@uic.edu. 

    1152 atoms
    1536 bonds
    3648 angles
    2880 dihedrals
    576 impropers

    6 atom types
    8 bond types
    17 angle types
    4 dihedral types
    3 improper types

0.00000000 22.0834 xlo xhi
0.00000000 24.27 ylo yhi
0.00000000 39.3018 zlo zhi
0.0 0.0 0.0 xy xz yz 

Masses 

    1    12.0107  #   C
    2    1.00794  #   H
    3  138.90547  #  La
    4    14.0067  #   N
    5    15.9994  #   O
    6    15.9994  #   O

Pair Coeffs

    1       0.10500      3.43085  #  C_R C_R
    2       0.04400      2.57113  #  H_ H_
    3       0.01700      3.13774  #  La8f4 La8f4
    4       0.06900      3.26069  #  N_R N_R
    5       0.06000      3.11815  #  O_1 O_1
    6       0.06000      3.11815  #  O_2_M O_2_M

Bond Coeffs

    1     185.57155      2.46859  #  La8f4 N_R bond order=0.5
    2     197.12509      2.33948  #  La8f4 O_2_M bond order=0.5
    3     357.44038      1.08142  #  C_R H_ bond order=1.0
    4     663.66675      1.34507  #  C_R N_R bond order=1.5
    5     391.66951      1.45800  #  C_R C_R bond order=1.0
    6     462.65505      1.37926  #  C_R C_R bond order=1.5
    7     714.55744      1.26901  #  C_R O_2_M bond order=1.5
    8     706.67500      1.27367  #  C_R O_1 bond order=1.5

Angle Coeffs

    1  fourier                 85.51310      0.34375      0.37500      0.28125  #  N_R La8f4 O_2_M
    2  fourier                 87.46854      0.34375      0.37500      0.28125  #  N_R La8f4 N_R
    3  fourier                 84.00928      0.34375      0.37500      0.28125  #  O_2_M La8f4 O_2_M
    4  cosine/periodic         79.78069           -1            3  #  H_ C_R N_R
    5  cosine/periodic        212.40917           -1            3  #  N_R C_R N_R
    6  cosine/periodic        102.18328           -1            3  #  C_R C_R C_R
    7  cosine/periodic        140.82706           -1            3  #  C_R C_R N_R
    8  cosine/periodic        153.68727           -1            3  #  C_R C_R N_R
    9  cosine/periodic         57.28902           -1            3  #  C_R C_R H_
    10 cosine/periodic        111.29751           -1            3  #  C_R C_R C_R
    11 cosine/periodic        137.71425           -1            3  #  C_R C_R O_2_M
    12 cosine/periodic        206.77843           -1            3  #  O_2_M C_R O_2_M
    13 cosine/periodic        137.04263           -1            3  #  C_R C_R O_1
    14 cosine/periodic        205.62388           -1            3  #  O_1 C_R O_2_M
    15 cosine/periodic         65.04790           -1            3  #  C_R N_R La8f4
    16 cosine/periodic        120.00052           -1            3  #  C_R N_R C_R
    17 cosine/periodic         76.66529           -1            3  #  C_R O_2_M La8f4

Dihedral Coeffs

    1       3.36856           -1            2  #  X C_R N_R X bond order=1.5
    2       1.25000           -1            2  #  X C_R C_R X bond order=1.0
    3       3.36856           -1            2  #  X C_R C_R X bond order=1.5
    4       6.73711           -1            2  #  X C_R O_2_M X bond order=1.5

Improper Coeffs

    1       2.00000      1.00000     -1.00000      0.00000            1  #  C_R X X X O_2 present=False
    2      16.66667      1.00000     -1.00000      0.00000            1  #  C_R X X X O_2 present=True
    3       2.00000      1.00000     -1.00000      0.00000            1  #  N_R X X X O_2 present=False

Atoms # a, b, c, alpha, beta, gamma: 22.0834000000, 24.2700000000, 39.3018000000, 90.0000000000, 90.0000000000, 90.0000000000 $$$atoms$$$

    1 1     3      0.00000      7.02064      1.93662      2.38483   #   La1   0.31791500   0.07979500   0.06068000
    2 1     3      0.00000      1.28536     11.91572      6.58561   #   La2   0.05820500   0.49096500   0.16756500
    3 1     3      0.00000      4.02106     10.19838     12.21028   #   La3   0.18208500   0.42020500   0.31068000
    4 1     3      0.00000      9.75634      0.21928     16.41106   #   La4   0.44179500   0.00903500   0.41756500
    5 1     3      0.00000      9.54191      8.00412      2.38483   #   La5   0.43208500   0.32979500   0.06068000
    6 1     3      0.00000      4.23549      5.84822      6.58561   #   La6   0.19179500   0.24096500   0.16756500
    7 1     3      0.00000      1.49979      4.13088     12.21028   #   La7   0.06791500   0.17020500   0.31068000
    8 1     3      0.00000      6.80621      6.28678     16.41106   #   La8   0.30820500   0.25903500   0.41756500
    9 1     2      0.00000      9.33024      0.15169      4.56294   #    H1   0.42250000   0.00625000   0.11610000
   10 1     2      0.00000      8.10130      3.24975      7.62455   #    H2   0.36685000   0.13390000   0.19400000
   11 1     2      0.00000      4.08874      1.21107      4.55115   #    H3   0.18515000   0.04990000   0.11580000
   12 1     2      0.00000      5.60477      9.06970      4.40573   #    H4   0.25380000   0.37370000   0.11210000
   13 1     2      0.00000      1.71146     11.98331     14.38839   #    H5   0.07750000   0.49375000   0.36610000
   14 1     2      0.00000      2.94040      8.88525     17.45000   #    H6   0.13315000   0.36610000   0.44400000
   15 1     2      0.00000      6.95296     10.92393     14.37660   #    H7   0.31485000   0.45010000   0.36580000
   16 1     2      0.00000      5.43693      3.06530     14.23118   #    H8   0.24620000   0.12630000   0.36210000
   17 1     2      0.00000      7.23231      6.21919      4.56294   #    H9   0.32750000   0.25625000   0.11610000
   18 1     2      0.00000      8.46125      9.31725      7.62455   #   H10   0.38315000   0.38390000   0.19400000
   19 1     2      0.00000      1.43211      7.27857      4.55115   #   H11   0.06485000   0.29990000   0.11580000
   20 1     2      0.00000     10.95778      3.00220      4.40573   #   H12   0.49620000   0.12370000   0.11210000
   21 1     2      0.00000      3.80939      5.91581     14.38839   #   H13   0.17250000   0.24375000   0.36610000
   22 1     2      0.00000      2.58045      2.81775     17.45000   #   H14   0.11685000   0.11610000   0.44400000
   23 1     2      0.00000      9.60959      4.85643     14.37660   #   H15   0.43515000   0.20010000   0.36580000
   24 1     2      0.00000      0.08392      9.13280     14.23118   #   H16   0.00380000   0.37630000   0.36210000
   25 1     1      0.00000      9.09505      0.81669      5.16819   #    C1   0.41185000   0.03365000   0.13150000
   26 1     1      0.00000      9.52347      1.91248      7.12738   #    C2   0.43125000   0.07880000   0.18135000
   27 1     1      0.00000      8.37734      2.64543      6.97410   #    C3   0.37935000   0.10900000   0.17745000
   28 1     1      0.00000      7.64859      2.45370      5.82256   #    C4   0.34635000   0.10110000   0.14815000
   29 1     1      0.00000      6.47596      3.34683      5.45312   #    C5   0.29325000   0.13790000   0.13875000
   30 1     1      0.00000     10.45980      2.13576      8.29858   #    C6   0.47365000   0.08800000   0.21115000
   31 1     1      0.00000      4.39791      0.33371      4.53150   #    C7   0.19915000   0.01375000   0.11530000
   32 1     1      0.00000      4.12297     10.31354      5.12102   #    C8   0.18670000   0.42495000   0.13030000
   33 1     1      0.00000      5.30443      9.94827      4.44896   #    C9   0.24020000   0.40990000   0.11320000
   34 1     1      0.00000      5.97687     10.99310      3.86140   #   C10   0.27065000   0.45295000   0.09825000
   35 1     1      0.00000      7.30188     10.73462      3.10681   #   C11   0.33065000   0.44230000   0.07905000
   36 1     1      0.00000      3.26613      9.23474      5.77343   #   C12   0.14790000   0.38050000   0.14690000
   37 1     1      0.00000      1.96542     10.76617      9.65252   #   C13   0.08900000   0.44360000   0.24560000
   38 1     1      0.00000      3.30368     11.38748      9.19662   #   C14   0.14960000   0.46920000   0.23400000
   39 1     1      0.00000      1.94665     11.31831     14.99364   #   C15   0.08815000   0.46635000   0.38150000
   40 1     1      0.00000      1.51823     10.22252     16.95283   #   C16   0.06875000   0.42120000   0.43135000
   41 1     1      0.00000      2.66436      9.48957     16.79955   #   C17   0.12065000   0.39100000   0.42745000
   42 1     1      0.00000      3.39311      9.68130     15.64801   #   C18   0.15365000   0.39890000   0.39815000
   43 1     1      0.00000      4.56574      8.78817     15.27857   #   C19   0.20675000   0.36210000   0.38875000
   44 1     1      0.00000      0.58190      9.99924     18.12403   #   C20   0.02635000   0.41200000   0.46115000
   45 1     1      0.00000      6.64379     11.80129     14.35695   #   C21   0.30085000   0.48625000   0.36530000
   46 1     1      0.00000      6.91873      1.82146     14.94647   #   C22   0.31330000   0.07505000   0.38030000
   47 1     1      0.00000      5.73727      2.18673     14.27441   #   C23   0.25980000   0.09010000   0.36320000
   48 1     1      0.00000      5.06483      1.14190     13.68685   #   C24   0.22935000   0.04705000   0.34825000
   49 1     1      0.00000      3.73982      1.40038     12.93226   #   C25   0.16935000   0.05770000   0.32905000
   50 1     1      0.00000      7.77557      2.90027     15.59888   #   C26   0.35210000   0.11950000   0.39690000
   51 1     1      0.00000      9.07628      1.36883     19.47797   #   C27   0.41100000   0.05640000   0.49560000
   52 1     1      0.00000      7.73802      0.74752     19.02207   #   C28   0.35040000   0.03080000   0.48400000
   53 1     1      0.00000      7.46750      6.88419      5.16819   #   C29   0.33815000   0.28365000   0.13150000
   54 1     1      0.00000      7.03908      7.97998      7.12738   #   C30   0.31875000   0.32880000   0.18135000
   55 1     1      0.00000      8.18521      8.71293      6.97410   #   C31   0.37065000   0.35900000   0.17745000
   56 1     1      0.00000      8.91396      8.52120      5.82256   #   C32   0.40365000   0.35110000   0.14815000
   57 1     1      0.00000     10.08659      9.41433      5.45312   #   C33   0.45675000   0.38790000   0.13875000
   58 1     1      0.00000      6.10275      8.20326      8.29858   #   C34   0.27635000   0.33800000   0.21115000
   59 1     1      0.00000      1.12294      6.40121      4.53150   #   C35   0.05085000   0.26375000   0.11530000
   60 1     1      0.00000      1.39788      4.24604      5.12102   #   C36   0.06330000   0.17495000   0.13030000
   61 1     1      0.00000      0.21642      3.88077      4.44896   #   C37   0.00980000   0.15990000   0.11320000
   62 1     1      0.00000     10.58568      4.92560      3.86140   #   C38   0.47935000   0.20295000   0.09825000
   63 1     1      0.00000      9.26067      4.66712      3.10681   #   C39   0.41935000   0.19230000   0.07905000
   64 1     1      0.00000      2.25472      3.16723      5.77343   #   C40   0.10210000   0.13050000   0.14690000
   65 1     1      0.00000      3.55543      4.69867      9.65252   #   C41   0.16100000   0.19360000   0.24560000
   66 1     1      0.00000      2.21717      5.31998      9.19662   #   C42   0.10040000   0.21920000   0.23400000
   67 1     1      0.00000      3.57420      5.25081     14.99364   #   C43   0.16185000   0.21635000   0.38150000
   68 1     1      0.00000      4.00262      4.15502     16.95283   #   C44   0.18125000   0.17120000   0.43135000
   69 1     1      0.00000      2.85649      3.42207     16.79955   #   C45   0.12935000   0.14100000   0.42745000
   70 1     1      0.00000      2.12774      3.61380     15.64801   #   C46   0.09635000   0.14890000   0.39815000
   71 1     1      0.00000      0.95511      2.72067     15.27857   #   C47   0.04325000   0.11210000   0.38875000
   72 1     1      0.00000      4.93895      3.93174     18.12403   #   C48   0.22365000   0.16200000   0.46115000
   73 1     1      0.00000      9.91876      5.73379     14.35695   #   C49   0.44915000   0.23625000   0.36530000
   74 1     1      0.00000      9.64382      7.88896     14.94647   #   C50   0.43670000   0.32505000   0.38030000
   75 1     1      0.00000     10.82528      8.25423     14.27441   #   C51   0.49020000   0.34010000   0.36320000
   76 1     1      0.00000      0.45602      7.20940     13.68685   #   C52   0.02065000   0.29705000   0.34825000
   77 1     1      0.00000      1.78103      7.46788     12.93226   #   C53   0.08065000   0.30770000   0.32905000
   78 1     1      0.00000      8.78698      8.96776     15.59888   #   C54   0.39790000   0.36950000   0.39690000
   79 1     1      0.00000      7.48627      7.43633     19.47797   #   C55   0.33900000   0.30640000   0.49560000
   80 1     1      0.00000      8.82453      6.81502     19.02207   #   C56   0.39960000   0.28080000   0.48400000
   81 1     4      0.00000      8.00634      1.53386      4.90683   #    N1   0.36255000   0.06320000   0.12485000
   82 1     4      0.00000      9.86465      0.98051      6.22934   #    N2   0.44670000   0.04040000   0.15850000
   83 1     4      0.00000      5.52085      0.10800      3.85747   #    N3   0.25000000   0.00445000   0.09815000
   84 1     4      0.00000      3.67468     11.56587      5.17998   #    N4   0.16640000   0.47655000   0.13180000
   85 1     4      0.00000      3.03536     10.60114     14.73228   #    N5   0.13745000   0.43680000   0.37485000
   86 1     4      0.00000      1.17705     11.15449     16.05479   #    N6   0.05330000   0.45960000   0.40850000
   87 1     4      0.00000      5.52085     12.02700     13.68292   #    N7   0.25000000   0.49555000   0.34815000
   88 1     4      0.00000      7.36702      0.56913     15.00543   #    N8   0.33360000   0.02345000   0.38180000
   89 1     4      0.00000      8.55621      7.60136      4.90683   #    N9   0.38745000   0.31320000   0.12485000
   90 1     4      0.00000      6.69790      7.04801      6.22934   #   N10   0.30330000   0.29040000   0.15850000
   91 1     4      0.00000      0.00000      6.17550      3.85747   #   N11   0.00000000   0.25445000   0.09815000
   92 1     4      0.00000      1.84617      5.49837      5.17998   #   N12   0.08360000   0.22655000   0.13180000
   93 1     4      0.00000      2.48549      4.53364     14.73228   #   N13   0.11255000   0.18680000   0.37485000
   94 1     4      0.00000      4.34380      5.08699     16.05479   #   N14   0.19670000   0.20960000   0.40850000
   95 1     4      0.00000      0.00000      5.95950     13.68292   #   N15   0.00000000   0.24555000   0.34815000
   96 1     4      0.00000      9.19553      6.63663     15.00543   #   N16   0.41640000   0.27345000   0.38180000
   97 1     6      0.00000      5.99675      3.20243      4.30355   #    O1   0.27155000   0.13195000   0.10950000
   98 1     6      0.00000      6.10606      4.17080      6.32169   #    O2   0.27650000   0.17185000   0.16085000
   99 1     6      0.00000      0.42511      1.40159      8.37325   #    O3   0.01925000   0.05775000   0.21305000
  100 1     5      0.00000     10.12855      3.02526      9.10033   #    O4   0.45865000   0.12465000   0.23155000
  101 1     6      0.00000      7.83740     11.71634      2.52711   #    O5   0.35490000   0.48275000   0.06430000
  102 1     6      0.00000      7.75900      9.58301      3.19720   #    O6   0.35135000   0.39485000   0.08135000
  103 1     6      0.00000      2.21717      9.60849      6.33152   #    O7   0.10040000   0.39590000   0.16110000
  104 1     6      0.00000      3.67578      8.04308      5.68697   #    O8   0.16645000   0.33140000   0.14470000
  105 1     6      0.00000      1.00700     10.74312      8.80950   #    O9   0.04560000   0.44265000   0.22415000
  106 1     6      0.00000      1.91794     10.31718     10.81782   #   O10   0.08685000   0.42510000   0.27525000
  107 1     6      0.00000      3.26724     12.06583      8.11779   #   O11   0.14795000   0.49715000   0.20655000
  108 1     6      0.00000      4.27645     11.22002      9.91388   #   O12   0.19365000   0.46230000   0.25225000
  109 1     6      0.00000      5.04495      8.93257     14.12900   #   O13   0.22845000   0.36805000   0.35950000
  110 1     6      0.00000      4.93564      7.96420     16.14714   #   O14   0.22350000   0.32815000   0.41085000
  111 1     6      0.00000     10.61659     10.73341     18.19870   #   O15   0.48075000   0.44225000   0.46305000
  112 1     5      0.00000      0.91315      9.10974     18.92578   #   O16   0.04135000   0.37535000   0.48155000
  113 1     6      0.00000      3.20430      0.41866     12.35256   #   O17   0.14510000   0.01725000   0.31430000
  114 1     6      0.00000      3.28270      2.55199     13.02265   #   O18   0.14865000   0.10515000   0.33135000
  115 1     6      0.00000      8.82453      2.52651     16.15697   #   O19   0.39960000   0.10410000   0.41110000
  116 1     6      0.00000      7.36592      4.09192     15.51242   #   O20   0.33355000   0.16860000   0.39470000
  117 1     6      0.00000     10.03470      1.39188     18.63495   #   O21   0.45440000   0.05735000   0.47415000
  118 1     6      0.00000      9.12376      1.81782      0.99237   #   O22   0.41315000   0.07490000   0.02525000
  119 1     6      0.00000      7.77446      0.06917     17.94324   #   O23   0.35205000   0.00285000   0.45655000
  120 1     6      0.00000      6.76525      0.91498      0.08843   #   O24   0.30635000   0.03770000   0.00225000
  121 1     6      0.00000     10.56580      9.26993      4.30355   #   O25   0.47845000   0.38195000   0.10950000
  122 1     6      0.00000     10.45649     10.23830      6.32169   #   O26   0.47350000   0.42185000   0.16085000
  123 1     6      0.00000      5.09574      7.46909      8.37325   #   O27   0.23075000   0.30775000   0.21305000
  124 1     5      0.00000      6.43400      9.09276      9.10033   #   O28   0.29135000   0.37465000   0.23155000
  125 1     6      0.00000      8.72515      5.64884      2.52711   #   O29   0.39510000   0.23275000   0.06430000
  126 1     6      0.00000      8.80355      3.51551      3.19720   #   O30   0.39865000   0.14485000   0.08135000
  127 1     6      0.00000      3.30368      3.54099      6.33152   #   O31   0.14960000   0.14590000   0.16110000
  128 1     6      0.00000      1.84507      1.97558      5.68697   #   O32   0.08355000   0.08140000   0.14470000
  129 1     6      0.00000      4.51385      4.67562      8.80950   #   O33   0.20440000   0.19265000   0.22415000
  130 1     6      0.00000      3.60291      4.24968     10.81782   #   O34   0.16315000   0.17510000   0.27525000
  131 1     6      0.00000      2.25361      5.99833      8.11779   #   O35   0.10205000   0.24715000   0.20655000
  132 1     6      0.00000      1.24440      5.15252      9.91388   #   O36   0.05635000   0.21230000   0.25225000
  133 1     6      0.00000      0.47590      2.86507     14.12900   #   O37   0.02155000   0.11805000   0.35950000
  134 1     6      0.00000      0.58521      1.89670     16.14714   #   O38   0.02650000   0.07815000   0.41085000
  135 1     6      0.00000      5.94596      4.66591     18.19870   #   O39   0.26925000   0.19225000   0.46305000
  136 1     5      0.00000      4.60770      3.04224     18.92578   #   O40   0.20865000   0.12535000   0.48155000
  137 1     6      0.00000      2.31655      6.48616     12.35256   #   O41   0.10490000   0.26725000   0.31430000
  138 1     6      0.00000      2.23815      8.61949     13.02265   #   O42   0.10135000   0.35515000   0.33135000
  139 1     6      0.00000      7.73802      8.59401     16.15697   #   O43   0.35040000   0.35410000   0.41110000
  140 1     6      0.00000      9.19663     10.15942     15.51242   #   O44   0.41645000   0.41860000   0.39470000
  141 1     6      0.00000      6.52785      7.45938     18.63495   #   O45   0.29560000   0.30735000   0.47415000
  142 1     6      0.00000      7.43879      7.88532      0.99237   #   O46   0.33685000   0.32490000   0.02525000
  143 1     6      0.00000      8.78809      6.13667     17.94324   #   O47   0.39795000   0.25285000   0.45655000
  144 1     6      0.00000      9.79730      6.98248      0.08843   #   O48   0.44365000   0.28770000   0.00225000
  145 1     3      0.00000      7.02064      1.93662     22.03573   #   La1   0.31791500   0.07979500   0.56068000
  146 1     3      0.00000      1.28536     11.91572     26.23651   #   La2   0.05820500   0.49096500   0.66756500
  147 1     3      0.00000      4.02106     10.19838     31.86118   #   La3   0.18208500   0.42020500   0.81068000
  148 1     3      0.00000      9.75634      0.21928     36.06196   #   La4   0.44179500   0.00903500   0.91756500
  149 1     3      0.00000      9.54191      8.00412     22.03573   #   La5   0.43208500   0.32979500   0.56068000
  150 1     3      0.00000      4.23549      5.84822     26.23651   #   La6   0.19179500   0.24096500   0.66756500
  151 1     3      0.00000      1.49979      4.13088     31.86118   #   La7   0.06791500   0.17020500   0.81068000
  152 1     3      0.00000      6.80621      6.28678     36.06196   #   La8   0.30820500   0.25903500   0.91756500
  153 1     2      0.00000      9.33024      0.15169     24.21384   #    H1   0.42250000   0.00625000   0.61610000
  154 1     2      0.00000      8.10130      3.24975     27.27545   #    H2   0.36685000   0.13390000   0.69400000
  155 1     2      0.00000      4.08874      1.21107     24.20205   #    H3   0.18515000   0.04990000   0.61580000
  156 1     2      0.00000      5.60477      9.06970     24.05663   #    H4   0.25380000   0.37370000   0.61210000
  157 1     2      0.00000      1.71146     11.98331     34.03929   #    H5   0.07750000   0.49375000   0.86610000
  158 1     2      0.00000      2.94040      8.88525     37.10090   #    H6   0.13315000   0.36610000   0.94400000
  159 1     2      0.00000      6.95296     10.92393     34.02750   #    H7   0.31485000   0.45010000   0.86580000
  160 1     2      0.00000      5.43693      3.06530     33.88208   #    H8   0.24620000   0.12630000   0.86210000
  161 1     2      0.00000      7.23231      6.21919     24.21384   #    H9   0.32750000   0.25625000   0.61610000
  162 1     2      0.00000      8.46125      9.31725     27.27545   #   H10   0.38315000   0.38390000   0.69400000
  163 1     2      0.00000      1.43211      7.27857     24.20205   #   H11   0.06485000   0.29990000   0.61580000
  164 1     2      0.00000     10.95778      3.00220     24.05663   #   H12   0.49620000   0.12370000   0.61210000
  165 1     2      0.00000      3.80939      5.91581     34.03929   #   H13   0.17250000   0.24375000   0.86610000
  166 1     2      0.00000      2.58045      2.81775     37.10090   #   H14   0.11685000   0.11610000   0.94400000
  167 1     2      0.00000      9.60959      4.85643     34.02750   #   H15   0.43515000   0.20010000   0.86580000
  168 1     2      0.00000      0.08392      9.13280     33.88208   #   H16   0.00380000   0.37630000   0.86210000
  169 1     1      0.00000      9.09505      0.81669     24.81909   #    C1   0.41185000   0.03365000   0.63150000
  170 1     1      0.00000      9.52347      1.91248     26.77828   #    C2   0.43125000   0.07880000   0.68135000
  171 1     1      0.00000      8.37734      2.64543     26.62500   #    C3   0.37935000   0.10900000   0.67745000
  172 1     1      0.00000      7.64859      2.45370     25.47346   #    C4   0.34635000   0.10110000   0.64815000
  173 1     1      0.00000      6.47596      3.34683     25.10402   #    C5   0.29325000   0.13790000   0.63875000
  174 1     1      0.00000     10.45980      2.13576     27.94948   #    C6   0.47365000   0.08800000   0.71115000
  175 1     1      0.00000      4.39791      0.33371     24.18240   #    C7   0.19915000   0.01375000   0.61530000
  176 1     1      0.00000      4.12297     10.31354     24.77192   #    C8   0.18670000   0.42495000   0.63030000
  177 1     1      0.00000      5.30443      9.94827     24.09986   #    C9   0.24020000   0.40990000   0.61320000
  178 1     1      0.00000      5.97687     10.99310     23.51230   #   C10   0.27065000   0.45295000   0.59825000
  179 1     1      0.00000      7.30188     10.73462     22.75771   #   C11   0.33065000   0.44230000   0.57905000
  180 1     1      0.00000      3.26613      9.23474     25.42433   #   C12   0.14790000   0.38050000   0.64690000
  181 1     1      0.00000      1.96542     10.76617     29.30342   #   C13   0.08900000   0.44360000   0.74560000
  182 1     1      0.00000      3.30368     11.38748     28.84752   #   C14   0.14960000   0.46920000   0.73400000
  183 1     1      0.00000      1.94665     11.31831     34.64454   #   C15   0.08815000   0.46635000   0.88150000
  184 1     1      0.00000      1.51823     10.22252     36.60373   #   C16   0.06875000   0.42120000   0.93135000
  185 1     1      0.00000      2.66436      9.48957     36.45045   #   C17   0.12065000   0.39100000   0.92745000
  186 1     1      0.00000      3.39311      9.68130     35.29891   #   C18   0.15365000   0.39890000   0.89815000
  187 1     1      0.00000      4.56574      8.78817     34.92947   #   C19   0.20675000   0.36210000   0.88875000
  188 1     1      0.00000      0.58190      9.99924     37.77493   #   C20   0.02635000   0.41200000   0.96115000
  189 1     1      0.00000      6.64379     11.80129     34.00785   #   C21   0.30085000   0.48625000   0.86530000
  190 1     1      0.00000      6.91873      1.82146     34.59737   #   C22   0.31330000   0.07505000   0.88030000
  191 1     1      0.00000      5.73727      2.18673     33.92531   #   C23   0.25980000   0.09010000   0.86320000
  192 1     1      0.00000      5.06483      1.14190     33.33775   #   C24   0.22935000   0.04705000   0.84825000
  193 1     1      0.00000      3.73982      1.40038     32.58316   #   C25   0.16935000   0.05770000   0.82905000
  194 1     1      0.00000      7.77557      2.90027     35.24978   #   C26   0.35210000   0.11950000   0.89690000
  195 1     1      0.00000      9.07628      1.36883     39.12887   #   C27   0.41100000   0.05640000   0.99560000
  196 1     1      0.00000      7.73802      0.74752     38.67297   #   C28   0.35040000   0.03080000   0.98400000
  197 1     1      0.00000      7.46750      6.88419     24.81909   #   C29   0.33815000   0.28365000   0.63150000
  198 1     1      0.00000      7.03908      7.97998     26.77828   #   C30   0.31875000   0.32880000   0.68135000
  199 1     1      0.00000      8.18521      8.71293     26.62500   #   C31   0.37065000   0.35900000   0.67745000
  200 1     1      0.00000      8.91396      8.52120     25.47346   #   C32   0.40365000   0.35110000   0.64815000
  201 1     1      0.00000     10.08659      9.41433     25.10402   #   C33   0.45675000   0.38790000   0.63875000
  202 1     1      0.00000      6.10275      8.20326     27.94948   #   C34   0.27635000   0.33800000   0.71115000
  203 1     1      0.00000      1.12294      6.40121     24.18240   #   C35   0.05085000   0.26375000   0.61530000
  204 1     1      0.00000      1.39788      4.24604     24.77192   #   C36   0.06330000   0.17495000   0.63030000
  205 1     1      0.00000      0.21642      3.88077     24.09986   #   C37   0.00980000   0.15990000   0.61320000
  206 1     1      0.00000     10.58568      4.92560     23.51230   #   C38   0.47935000   0.20295000   0.59825000
  207 1     1      0.00000      9.26067      4.66712     22.75771   #   C39   0.41935000   0.19230000   0.57905000
  208 1     1      0.00000      2.25472      3.16723     25.42433   #   C40   0.10210000   0.13050000   0.64690000
  209 1     1      0.00000      3.55543      4.69867     29.30342   #   C41   0.16100000   0.19360000   0.74560000
  210 1     1      0.00000      2.21717      5.31998     28.84752   #   C42   0.10040000   0.21920000   0.73400000
  211 1     1      0.00000      3.57420      5.25081     34.64454   #   C43   0.16185000   0.21635000   0.88150000
  212 1     1      0.00000      4.00262      4.15502     36.60373   #   C44   0.18125000   0.17120000   0.93135000
  213 1     1      0.00000      2.85649      3.42207     36.45045   #   C45   0.12935000   0.14100000   0.92745000
  214 1     1      0.00000      2.12774      3.61380     35.29891   #   C46   0.09635000   0.14890000   0.89815000
  215 1     1      0.00000      0.95511      2.72067     34.92947   #   C47   0.04325000   0.11210000   0.88875000
  216 1     1      0.00000      4.93895      3.93174     37.77493   #   C48   0.22365000   0.16200000   0.96115000
  217 1     1      0.00000      9.91876      5.73379     34.00785   #   C49   0.44915000   0.23625000   0.86530000
  218 1     1      0.00000      9.64382      7.88896     34.59737   #   C50   0.43670000   0.32505000   0.88030000
  219 1     1      0.00000     10.82528      8.25423     33.92531   #   C51   0.49020000   0.34010000   0.86320000
  220 1     1      0.00000      0.45602      7.20940     33.33775   #   C52   0.02065000   0.29705000   0.84825000
  221 1     1      0.00000      1.78103      7.46788     32.58316   #   C53   0.08065000   0.30770000   0.82905000
  222 1     1      0.00000      8.78698      8.96776     35.24978   #   C54   0.39790000   0.36950000   0.89690000
  223 1     1      0.00000      7.48627      7.43633     39.12887   #   C55   0.33900000   0.30640000   0.99560000
  224 1     1      0.00000      8.82453      6.81502     38.67297   #   C56   0.39960000   0.28080000   0.98400000
  225 1     4      0.00000      8.00634      1.53386     24.55773   #    N1   0.36255000   0.06320000   0.62485000
  226 1     4      0.00000      9.86465      0.98051     25.88024   #    N2   0.44670000   0.04040000   0.65850000
  227 1     4      0.00000      5.52085      0.10800     23.50837   #    N3   0.25000000   0.00445000   0.59815000
  228 1     4      0.00000      3.67468     11.56587     24.83088   #    N4   0.16640000   0.47655000   0.63180000
  229 1     4      0.00000      3.03536     10.60114     34.38318   #    N5   0.13745000   0.43680000   0.87485000