Created by Ryther's code on 2025-08-05 19:07:27.129635, modified by xyan11@uic.edu. 

    552 atoms
    624 bonds
    1208 angles
    1208 dihedrals
    216 impropers

    11 atom types
    20 bond types
    36 angle types
    12 dihedral types
    3 improper types

0.00000000 38.55326686 xlo xhi
0.00000000 20.597 ylo yhi
0.00000000 20.5387224 zlo zhi
-0.03142097 0.00408702 1.59580419 xy xz yz 

Masses 

    1    12.0107  #   C
    2    12.0107  #   C
    3    12.0107  #   C
    4     35.453  #  Cl
    5    1.00794  #   H
    6    14.0067  #   N
    7    14.0067  #   N
    8    15.9994  #   O
    9    15.9994  #   O
   10    15.9994  #   O
   11      65.38  #  Zn

Pair Coeffs

    1       0.10500      3.43085  #  C_2 C_2
    2       0.10500      3.43085  #  C_3 C_3
    3       0.10500      3.43085  #  C_R C_R
    4       0.22700      3.51638  #  Cl_f Cl_f
    5       0.04400      2.57113  #  H_ H_
    6       0.06900      3.26069  #  N_2 N_2
    7       0.06900      3.26069  #  N_3 N_3
    8       0.06000      3.11815  #  O_1 O_1
    9       0.06000      3.11815  #  O_2_M O_2_M
    10      0.06000      3.11815  #  O_3 O_3
    11      0.12400      2.46155  #  Zn4+2 Zn4+2

Bond Coeffs

    1     104.44141      2.12294  #  O_2_M Zn4+2 bond order=0.5
    2      48.90184      1.84943  #  H_ Zn4+2 bond order=0.5
    3     103.61325      2.20128  #  N_2 Zn4+2 bond order=0.5
    4     357.44038      1.08142  #  C_R H_ bond order=1.0
    5     527.90376      1.04442  #  H_ N_3 bond order=1.0
    6     331.06939      1.10940  #  C_3 H_ bond order=1.0
    7     462.65505      1.37926  #  C_R C_R bond order=1.5
    8     931.53598      1.20133  #  C_R N_2 bond order=3.0
    9     523.75938      1.32339  #  C_R C_R bond order=2.0
    10    369.94394      1.48600  #  C_3 C_R bond order=1.0
    11    520.53955      1.32611  #  C_2 C_R bond order=2.0
    12    389.26171      1.46100  #  C_2 C_R bond order=1.0
    13    556.75624      1.42618  #  C_2 N_3 bond order=1.0
    14    528.59298      1.45107  #  C_3 N_3 bond order=1.0
    15    391.66951      1.45800  #  C_R C_R bond order=1.0
    16    706.67500      1.27367  #  C_R O_1 bond order=1.5
    17    277.92768      1.75058  #  C_R Cl_f bond order=1.0
    18    572.46041      1.36631  #  C_R O_3 bond order=1.0
    19    539.20166      1.39385  #  C_3 O_3 bond order=1.0
    20    714.55744      1.26901  #  C_R O_2_M bond order=1.5

Angle Coeffs

    1  cosine/periodic         36.20045            1            4  #  H_ Zn4+2 O_2_M
    2  cosine/periodic         97.36576            1            4  #  O_2_M Zn4+2 O_2_M
    3  cosine/periodic        101.82219            1            4  #  N_2 Zn4+2 O_2_M
    4  cosine/periodic         14.11273            1            4  #  H_ Zn4+2 H_
    5  cosine/periodic         37.39156            1            4  #  H_ Zn4+2 N_2
    6  cosine/periodic        179.74893           -1            3  #  C_R C_R N_2
    7  cosine/periodic        118.27773           -1            3  #  C_R C_R C_R
    8  cosine/periodic         99.13715           -1            3  #  C_3 C_R C_R
    9  cosine/periodic        104.90215           -1            3  #  C_3 C_R C_R
    10 cosine/periodic         61.73740           -1            3  #  C_R C_R H_
    11 cosine/periodic         57.28902           -1            3  #  C_R C_R H_
    12 cosine/periodic         61.51171           -1            3  #  C_2 C_R H_
    13 cosine/periodic        117.92729           -1            3  #  C_2 C_R C_R
    14 cosine/periodic        107.57857           -1            3  #  C_R C_2 C_R
    15 cosine/periodic        148.82539           -1            3  #  C_R C_2 N_3
    16 cosine/periodic        129.12258           -1            3  #  C_R C_2 N_3
    17 cosine/periodic        101.85214           -1            3  #  C_2 C_R C_R
    18 cosine/periodic        111.29751           -1            3  #  C_R C_R C_R
    19 fourier                 75.49653      0.34375      0.37500      0.28125  #  H_ C_3 H_
    20 fourier                121.77380      0.34375      0.37500      0.28125  #  C_R C_3 H_
    21 fourier                169.76232      0.34375      0.37500      0.28125  #  H_ C_3 N_3
    22 fourier                312.20132      0.34375      0.37500      0.28125  #  C_R C_3 N_3
    23 cosine/periodic        102.18328           -1            3  #  C_R C_R C_R
    24 cosine/periodic        137.04263           -1            3  #  C_R C_R O_1
    25 cosine/periodic         85.93361           -1            3  #  C_R C_R Cl_f
    26 cosine/periodic        120.81219           -1            3  #  Cl_f C_R O_1
    27 cosine/periodic        135.76992           -1            3  #  C_R C_R O_3
    28 fourier                165.75867      0.34375      0.37500      0.28125  #  H_ C_3 O_3
    29 cosine/periodic        137.71425           -1            3  #  C_R C_R O_2_M
    30 cosine/periodic        206.77843           -1            3  #  O_2_M C_R O_2_M
    31 fourier                 84.89470      0.36401      0.41847      0.28800  #  C_R N_2 Zn4+2
    32 fourier                149.93235      0.31751      0.31322      0.27250  #  C_2 N_3 H_
    33 fourier                144.69505      0.31751      0.31322      0.27250  #  C_3 N_3 H_
    34 fourier                267.65751      0.31751      0.31322      0.27250  #  C_2 N_3 C_3
    35 fourier                320.94891      0.30023      0.26733      0.26675  #  C_3 O_3 C_R
    36 cosine/periodic         37.72922           -1            3  #  C_R O_2_M Zn4+2

Dihedral Coeffs

    1       6.73711           -1            2  #  X C_R C_R X bond order=1.5
    2      27.96100           -1            2  #  X C_R N_2 X bond order=3.0
    3       4.87169           -1            2  #  X C_R C_R X bond order=2.0
    4       0.16667           -1            6  #  X C_3 C_R X bond order=1.0
    5       4.87169           -1            2  #  X C_2 C_R X bond order=2.0
    6       1.25000           -1            2  #  X C_2 C_R X bond order=1.0
    7       0.25000           -1            6  #  X C_2 N_3 X bond order=1.0
    8       0.08138            1            3  #  X C_3 N_3 X bond order=1.0
    9       1.25000           -1            2  #  X C_R C_R X bond order=1.0
    10      0.23717           -1            2  #  X C_R O_3 X bond order=1.0
    11      0.03255            1            3  #  X C_3 O_3 X bond order=1.0
    12      6.73711           -1            2  #  X C_R O_2_M X bond order=1.5

Improper Coeffs

    1       2.00000      1.00000     -1.00000      0.00000            1  #  C_R X X X O_2 present=False
    2       2.00000      1.00000     -1.00000      0.00000            1  #  C_2 X X X O_2 present=False
    3      16.66667      1.00000     -1.00000      0.00000            1  #  C_R X X X O_2 present=True

Atoms # a, b, c, alpha, beta, gamma: 38.5532668553, 20.5970239711, 20.6006243932, 85.5572186264, 89.9886329070, 90.0874053408 $$$atoms$$$

    1 1     11     0.00000     14.58530      4.81587      5.82269   #   Zn1   0.37845826   0.21184938   0.28349815
    2 1     11     0.00000     17.51570      4.82028      5.82144   #   Zn2   0.45446734   0.21206822   0.28343730
    3 1     5      0.00000      9.82843      6.85050      5.95098   #    H1   0.25515319   0.31014837   0.28974447
    4 1     5      0.00000      7.33476      6.87727      5.99982   #    H2   0.19047264   0.31126368   0.29212213
    5 1     5      0.00000      5.46192      3.27496      4.32871   #    H3   0.14176606   0.14267295   0.21075853
    6 1     5      0.00000      3.00864      3.28172      4.32434   #    H4   0.07813286   0.14301726   0.21054578
    7 1     5      0.00000      2.99978      6.33909      7.35928   #    H5   0.07799903   0.28000642   0.35831228
    8 1     5      0.00000      5.45261      6.32288      7.39200   #    H6   0.14161980   0.27909622   0.35990572
    9 1     5      0.00000      7.29058      2.63878      5.71947   #    H7   0.18916143   0.10653951   0.27847254
   10 1     5      0.00000      9.55198      2.87443      6.78584   #    H8   0.24781857   0.11395757   0.33039252
   11 1     5      0.00000      9.66286      2.81778      4.98933   #    H9   0.25070700   0.11798436   0.24292323
   12 1     5      0.00000     15.60298      4.26606      6.11801   #   H10   0.40483074   0.18404165   0.29787665
   13 1     5      0.00000     17.67720      1.82155      4.75157   #   H11   0.45854674   0.07051347   0.23134680
   14 1     5      0.00000     17.66373      7.81732      4.75442   #   H12   0.45843447   0.36160202   0.23148591
   15 1     5      0.00000     14.55938      9.96502      6.80101   #   H13   0.37798158   0.45815415   0.33113114
   16 1     5      0.00000     15.60027      5.36876      6.11866   #   H14   0.40480400   0.23757598   0.29790847
   17 1     5      0.00000     16.54950      4.58357      5.28736   #   H15   0.42940117   0.20259031   0.25743387
   18 1     5      0.00000     14.23567      5.28295      2.77576   #   H16   0.36943288   0.24602050   0.13514787
   19 1     5      0.00000     14.22336      5.75379      8.76842   #   H17   0.36908295   0.24627405   0.42692150
   20 1     5      0.00000     17.70840      3.78150      0.73676   #   H18   0.45946663   0.18081558   0.03587192
   21 1     5      0.00000     16.54679      4.67008      6.38629   #   H19   0.42932516   0.20264514   0.31093901
   22 1     5      0.00000     11.81510      5.20479      2.32292   #   H20   0.30664842   0.24393376   0.11309968
   23 1     5      0.00000     10.98980      6.42169      1.27898   #   H21   0.28529857   0.30695321   0.06227167
   24 1     5      0.00000     12.47027      6.89911      2.19114   #   H22   0.32371063   0.32669155   0.10668355
   25 1     3      0.00000     11.42851      4.78729      5.83753   #    C1   0.29657565   0.21040587   0.28422046
   26 1     3      0.00000      9.98829      4.75479      5.85503   #    C2   0.25921747   0.20876209   0.28507281
   27 1     3      0.00000      9.30398      5.90210      5.92269   #    C3   0.24151261   0.26420969   0.28836693
   28 1     3      0.00000      7.83566      5.91845      5.94857   #    C4   0.20342763   0.26490569   0.28962707
   29 1     1      0.00000      7.13506      4.78021      5.86631   #    C5   0.18521100   0.20995379   0.28562185
   30 1     3      0.00000      5.65025      4.79984      5.85847   #    C6   0.14669869   0.21093601   0.28524001
   31 1     3      0.00000      4.93812      3.94002      5.00374   #    C7   0.12820029   0.17241560   0.24362473
   32 1     3      0.00000      3.53991      3.94766      4.99384   #    C8   0.09193367   0.17282363   0.24314286
   33 1     3      0.00000      2.83563      4.81192      5.83977   #    C9   0.07369329   0.21159312   0.28432991
   34 1     3      0.00000      1.39618      4.81828      5.82914   #   C10   0.03635705   0.21194198   0.28381204
   35 1     3      0.00000      3.53490      5.66937      6.69666   #   C11   0.09185801   0.24999044   0.32605038
   36 1     3      0.00000      4.93305      5.66420      6.70747   #   C12   0.12812295   0.24969895   0.32657694
   37 1     2      0.00000      9.29433      3.41524      5.85041   #   C13   0.24116453   0.14374312   0.28484799
   38 1     3      0.00000     16.05642      0.89015      5.82216   #   C14   0.41646081   0.02125484   0.28347240
   39 1     3      0.00000     17.22840      0.88173      5.04871   #   C15   0.44686605   0.02376375   0.24581399
   40 1     3      0.00000     17.81100      9.96988      4.65507   #   C16   0.46234026   0.46648502   0.22664842
   41 1     3      0.00000     17.21700      8.75741      5.04830   #   C17   0.44688188   0.40613520   0.24579437
   42 1     3      0.00000     16.04471      8.74600      5.82197   #   C18   0.41646812   0.40266307   0.28346334
   43 1     3      0.00000     15.46346      9.96644      6.20435   #   C19   0.40143677   0.46047365   0.30208045
   44 1     3      0.00000     19.05056      9.98370      3.83700   #   C20   0.49449954   0.47024227   0.18681766
   45 1     3      0.00000     16.04941      4.51395      1.90593   #   C21   0.41645466   0.21196603   0.09279682
   46 1     3      0.00000     14.73867      5.01693      1.85622   #   C22   0.38247701   0.23657359   0.09037643
   47 1     3      0.00000     14.07890      5.17620      0.62374   #   C23   0.36538022   0.24895560   0.03036887
   48 1     3      0.00000     14.74178      5.62661      9.71082   #   C24   0.38251710   0.23654460   0.47280557
   49 1     3      0.00000     16.05172      5.12221      9.73821   #   C25   0.41647427   0.21195189   0.47413893
   50 1     3      0.00000     16.69770      4.16999      0.70668   #   C26   0.43326637   0.19979051   0.03440736
   51 1     2      0.00000     11.97597      6.06874      1.64399   #   C27   0.31086105   0.28844016   0.08004330
   52 1     3      0.00000     16.05133      4.95395      8.25774   #   C28   0.41646973   0.20936742   0.40205716
   53 1     3      0.00000     16.04970      4.68222      3.38639   #   C29   0.41645670   0.21455100   0.16487835
   54 1     3      0.00000     16.04684      7.25695      5.76887   #   C30   0.41646481   0.33056889   0.28087766
   55 1     3      0.00000     16.05419      2.37920      5.87526   #   C31   0.41646159   0.09334875   0.28605789
   56 1     6      0.00000     12.58540      4.81286      5.82344   #    N1   0.32658423   0.21170051   0.28353445
   57 1     6      0.00000      0.23897      4.82339      5.82058   #    N2   0.00634137   0.21222241   0.28339567
   58 1     7      0.00000      7.83587      3.52893      5.75586   #    N3   0.20334011   0.14961953   0.28024438
   59 1     4      0.00000      0.56335      8.50058      3.31753   #   Cl1   0.01492138   0.40019520   0.16152570
   60 1     8      0.00000      0.31020      0.77966      3.49233   #    O1   0.00804813   0.02467887   0.17003630
   61 1     10     0.00000     12.77056      5.67483      0.52994   #    O2   0.33146475   0.27351823   0.02580202
   62 1     9      0.00000     17.16187      4.74031      3.88277   #    O3   0.44530244   0.21549876   0.18904648
   63 1     9      0.00000     17.16327      4.89919      7.76041   #    O4   0.44531313   0.20858527   0.37784266
   64 1     9      0.00000     17.15962      6.75890      5.75062   #    O5   0.44530877   0.30645699   0.27998935
   65 1     9      0.00000     17.16551      2.88060      5.89255   #    O6   0.44530677   0.11762704   0.28689974
   66 1     9      0.00000     14.93549      6.75555      5.75158   #    O7   0.38761881   0.30629056   0.28003572
   67 1     9      0.00000     14.93914      4.89586      7.76136   #    O8   0.38762317   0.20841962   0.37788899
   68 1     9      0.00000     14.93773      4.73697      3.88371   #    O9   0.38761247   0.21533308   0.18909202
   69 1     9      0.00000     14.94138      2.87726      5.89349   #   O10   0.38761680   0.11746136   0.28694533
   70 1     11     0.00000     14.58735      5.61377     16.09205   #   Zn1   0.37845826   0.21184938   0.78349815
   71 1     11     0.00000     17.51774      5.61818     16.09080   #   Zn2   0.45446734   0.21206822   0.78343730
   72 1     5      0.00000      9.83047      7.64840     16.22034   #    H1   0.25515319   0.31014837   0.78974447
   73 1     5      0.00000      7.33680      7.67517     16.26918   #    H2   0.19047264   0.31126368   0.79212213
   74 1     5      0.00000      5.46397      4.07287     14.59807   #    H3   0.14176606   0.14267295   0.71075853
   75 1     5      0.00000      3.01069      4.07962     14.59370   #    H4   0.07813286   0.14301726   0.71054578
   76 1     5      0.00000      3.00183      7.13699     17.62864   #    H5   0.07799903   0.28000642   0.85831228
   77 1     5      0.00000      5.45465      7.12079     17.66136   #    H6   0.14161980   0.27909622   0.85990572
   78 1     5      0.00000      7.29263      3.43668     15.98883   #    H7   0.18916143   0.10653951   0.77847254
   79 1     5      0.00000      9.55403      3.67233     17.05520   #    H8   0.24781857   0.11395757   0.83039252
   80 1     5      0.00000      9.66490      3.61568     15.25869   #    H9   0.25070700   0.11798436   0.74292323
   81 1     5      0.00000     15.60503      5.06396     16.38737   #   H10   0.40483074   0.18404165   0.79787665
   82 1     5      0.00000     17.67925      2.61945     15.02093   #   H11   0.45854674   0.07051347   0.73134680
   83 1     5      0.00000     17.66577      8.61523     15.02379   #   H12   0.45843447   0.36160202   0.73148591
   84 1     5      0.00000     14.56143     10.76292     17.07037   #   H13   0.37798158   0.45815415   0.83113114
   85 1     5      0.00000     15.60231      6.16666     16.38802   #   H14   0.40480400   0.23757598   0.79790847
   86 1     5      0.00000     16.55155      5.38147     15.55672   #   H15   0.42940117   0.20259031   0.75743387
   87 1     5      0.00000     14.23771      6.08086     13.04513   #   H16   0.36943288   0.24602050   0.63514787
   88 1     5      0.00000     14.22540      6.55169     19.03778   #   H17   0.36908295   0.24627405   0.92692150
   89 1     5      0.00000     17.71045      4.57941     11.00612   #   H18   0.45946663   0.18081558   0.53587192
   90 1     5      0.00000     16.54883      5.46798     16.65565   #   H19   0.42932516   0.20264514   0.81093901
   91 1     5      0.00000     11.81714      6.00269     12.59228   #   H20   0.30664842   0.24393376   0.61309968
   92 1     5      0.00000     10.99185      7.21959     11.54834   #   H21   0.28529857   0.30695321   0.56227167
   93 1     5      0.00000     12.47232      7.69701     12.46050   #   H22   0.32371063   0.32669155   0.60668355
   94 1     3      0.00000     11.43055      5.58519     16.10689   #    C1   0.29657565   0.21040587   0.78422046
   95 1     3      0.00000      9.99033      5.55270     16.12439   #    C2   0.25921747   0.20876209   0.78507281
   96 1     3      0.00000      9.30602      6.70001     16.19205   #    C3   0.24151261   0.26420969   0.78836693
   97 1     3      0.00000      7.83770      6.71635     16.21793   #    C4   0.20342763   0.26490569   0.78962707
   98 1     1      0.00000      7.13710      5.57812     16.13567   #    C5   0.18521100   0.20995379   0.78562185
   99 1     3      0.00000      5.65230      5.59774     16.12783   #    C6   0.14669869   0.21093601   0.78524001
  100 1     3      0.00000      4.94016      4.73792     15.27310   #    C7   0.12820029   0.17241560   0.74362473
  101 1     3      0.00000      3.54195      4.74556     15.26320   #    C8   0.09193367   0.17282363   0.74314286
  102 1     3      0.00000      2.83767      5.60982     16.10913   #    C9   0.07369329   0.21159312   0.78432991
  103 1     3      0.00000      1.39823      5.61618     16.09850   #   C10   0.03635705   0.21194198   0.78381204
  104 1     3      0.00000      3.53695      6.46727     16.96602   #   C11   0.09185801   0.24999044   0.82605038
  105 1     3      0.00000      4.93509      6.46210     16.97683   #   C12   0.12812295   0.24969895   0.82657694
  106 1     2      0.00000      9.29637      4.21314     16.11977   #   C13   0.24116453   0.14374312   0.78484799
  107 1     3      0.00000     16.05846      1.68805     16.09152   #   C14   0.41646081   0.02125484   0.78347240
  108 1     3      0.00000     17.23045      1.67964     15.31807   #   C15   0.44686605   0.02376375   0.74581399
  109 1     3      0.00000     17.81304     10.76778     14.92443   #   C16   0.46234026   0.46648502   0.72664842
  110 1     3      0.00000     17.21904      9.55531     15.31766   #   C17   0.44688188   0.40613520   0.74579437
  111 1     3      0.00000     16.04676      9.54391     16.09134   #   C18   0.41646812   0.40266307   0.78346334
  112 1     3      0.00000     15.46551     10.76434     16.47371   #   C19   0.40143677   0.46047365   0.80208045
  113 1     3      0.00000     19.05260     10.78161     14.10636   #   C20   0.49449954   0.47024227   0.68681766
  114 1     3      0.00000     16.05145      5.31185     12.17529   #   C21   0.41645466   0.21196603   0.59279682
  115 1     3      0.00000     14.74072      5.81483     12.12558   #   C22   0.38247701   0.23657359   0.59037643
  116 1     3      0.00000     14.08095      5.97410     10.89310   #   C23   0.36538022   0.24895560   0.53036887
  117 1     3      0.00000     14.74383      6.42452     19.98018   #   C24   0.38251710   0.23654460   0.97280557
  118 1     3      0.00000     16.05377      5.92011     20.00757   #   C25   0.41647427   0.21195189   0.97413893
  119 1     3      0.00000     16.69974      4.96789     10.97604   #   C26   0.43326637   0.19979051   0.53440736
  120 1     2      0.00000     11.97802      6.86664     11.91335   #   C27   0.31086105   0.28844016   0.58004330
  121 1     3      0.00000     16.05338      5.75185     18.52710   #   C28   0.41646973   0.20936742   0.90205716
  122 1     3      0.00000     16.05174      5.48012     13.65575   #   C29   0.41645670   0.21455100   0.66487835
  123 1     3      0.00000     16.04888      8.05486     16.03823   #   C30   0.41646481   0.33056889   0.78087766
  124 1     3      0.00000     16.05623      3.17710     16.14462   #   C31   0.41646159   0.09334875   0.78605789
  125 1     6      0.00000     12.58744      5.61076     16.09280   #    N1   0.32658423   0.21170051   0.78353445
  126 1     6      0.00000      0.24101      5.62129     16.08995   #    N2   0.00634137   0.21222241   0.78339567
  127 1     7      0.00000      7.83791      4.32683     16.02522   #    N3   0.20334011   0.14961953   0.78024438
  128 1     4      0.00000      0.56540      9.29849     13.58689   #   Cl1   0.01492138   0.40019520   0.66152570
  129 1     8      0.00000      0.31224      1.57756     13.76169   #    O1   0.00804813   0.02467887   0.67003630
  130 1     10     0.00000     12.77260      6.47273     10.79930   #    O2   0.33146475   0.27351823   0.52580202
  131 1     9      0.00000     17.16391      5.53821     14.15213   #    O3   0.44530244   0.21549876   0.68904648
  132 1     9      0.00000     17.16531      5.69710     18.02977   #    O4   0.44531313   0.20858527   0.87784266
  133 1     9      0.00000     17.16167      7.55680     16.01998   #    O5   0.44530877   0.30645699   0.77998935
  134 1     9      0.00000     17.16755      3.67850     16.16192   #    O6   0.44530677   0.11762704   0.78689974
  135 1     9      0.00000     14.93754      7.55345     16.02094   #    O7   0.38761881   0.30629056   0.78003572
  136 1     9      0.00000     14.94118      5.69376     18.03072   #    O8   0.38762317   0.20841962   0.87788899
  137 1     9      0.00000     14.93978      5.53487     14.15307   #    O9   0.38761247   0.21533308   0.68909202
  138 1     9      0.00000     14.94342      3.67516     16.16285   #   O10   0.38761680   0.11746136   0.78694533
  139 1     11     0.00000     14.56959     15.11437      5.82269   #   Zn1   0.37845826   0.71184938   0.28349815
  140 1     11     0.00000     17.49999     15.11878      5.82144   #   Zn2   0.45446734   0.71206822   0.28343730
  141 1     5      0.00000      9.81272     17.14900      5.95098   #    H1   0.25515319   0.81014837   0.28974447
  142 1     5      0.00000      7.31905     17.17577      5.99982   #    H2   0.19047264   0.81126368   0.29212213
  143 1     5      0.00000      5.44621     13.57346      4.32871   #    H3   0.14176606   0.64267295   0.21075853
  144 1     5      0.00000      2.99293     13.58022      4.32434   #    H4   0.07813286   0.64301726   0.21054578
  145 1     5      0.00000      2.98407     16.63759      7.35928   #    H5   0.07799903   0.78000642   0.35831228
  146 1     5      0.00000      5.43690     16.62138      7.39200   #    H6   0.14161980   0.77909622   0.35990572
  147 1     5      0.00000      7.27487     12.93728      5.71947   #    H7   0.18916143   0.60653951   0.27847254
  148 1     5      0.00000      9.53627     13.17293      6.78584   #    H8   0.24781857   0.61395757   0.33039252
  149 1     5      0.00000      9.64715     13.11628      4.98933   #    H9   0.25070700   0.61798436   0.24292323
  150 1     5      0.00000     15.58727     14.56456      6.11801   #   H10   0.40483074   0.68404165   0.29787665
  151 1     5      0.00000     17.66149     12.12005      4.75157   #   H11   0.45854674   0.57051347   0.23134680
  152 1     5      0.00000     17.64802     18.11582      4.75442   #   H12   0.45843447   0.86160202   0.23148591
  153 1     5      0.00000     14.54367     20.26352      6.80101   #   H13   0.37798158   0.95815415   0.33113114
  154 1     5      0.00000     15.58456     15.66726      6.11866   #   H14   0.40480400   0.73757598   0.29790847
  155 1     5      0.00000     16.53379     14.88207      5.28736   #   H15   0.42940117   0.70259031   0.25743387
  156 1     5      0.00000     14.21996     15.58145      2.77576   #   H16   0.36943288   0.74602050   0.13514787
  157 1     5      0.00000     14.20765     16.05229      8.76842   #   H17   0.36908295   0.74627405   0.42692150
  158 1     5      0.00000     17.69269     14.08000      0.73676   #   H18   0.45946663   0.68081558   0.03587192
  159 1     5      0.00000     16.53108     14.96858      6.38629   #   H19   0.42932516   0.70264514   0.31093901
  160 1     5      0.00000     11.79939     15.50329      2.32292   #   H20   0.30664842   0.74393376   0.11309968
  161 1     5      0.00000     10.97409     16.72019      1.27898   #   H21   0.28529857   0.80695321   0.06227167
  162 1     5      0.00000     12.45456     17.19761      2.19114   #   H22   0.32371063   0.82669155   0.10668355
  163 1     3      0.00000     11.41280     15.08579      5.83753   #    C1   0.29657565   0.71040587   0.28422046
  164 1     3      0.00000      9.97258     15.05329      5.85503   #    C2   0.25921747   0.70876209   0.28507281
  165 1     3      0.00000      9.28827     16.20060      5.92269   #    C3   0.24151261   0.76420969   0.28836693
  166 1     3      0.00000      7.81995     16.21695      5.94857   #    C4   0.20342763   0.76490569   0.28962707
  167 1     1      0.00000      7.11935     15.07871      5.86631   #    C5   0.18521100   0.70995379   0.28562185
  168 1     3      0.00000      5.63454     15.09834      5.85847   #    C6   0.14669869   0.71093601   0.28524001
  169 1     3      0.00000      4.92241     14.23852      5.00374   #    C7   0.12820029   0.67241560   0.24362473
  170 1     3      0.00000      3.52420     14.24616      4.99384   #    C8   0.09193367   0.67282363   0.24314286
  171 1     3      0.00000      2.81992     15.11042      5.83977   #    C9   0.07369329   0.71159312   0.28432991
  172 1     3      0.00000      1.38047     15.11678      5.82914   #   C10   0.03635705   0.71194198   0.28381204
  173 1     3      0.00000      3.51919     15.96787      6.69666   #   C11   0.09185801   0.74999044   0.32605038
  174 1     3      0.00000      4.91734     15.96270      6.70747   #   C12   0.12812295   0.74969895   0.32657694
  175 1     2      0.00000      9.27862     13.71374      5.85041   #   C13   0.24116453   0.64374312   0.28484799
  176 1     3      0.00000     16.04071     11.18865      5.82216   #   C14   0.41646081   0.52125484   0.28347240
  177 1     3      0.00000     17.21269     11.18023      5.04871   #   C15   0.44686605   0.52376375   0.24581399
  178 1     3      0.00000     17.79529     20.26838      4.65507   #   C16   0.46234026   0.96648502   0.22664842
  179 1     3      0.00000     17.20129     19.05591      5.04830   #   C17   0.44688188   0.90613520   0.24579437
  180 1     3      0.00000     16.02900     19.04450      5.82197   #   C18   0.41646812   0.90266307   0.28346334
  181 1     3      0.00000     15.44775     20.26494      6.20435   #   C19   0.40143677   0.96047365   0.30208045
  182 1     3      0.00000     19.03485     20.28220      3.83700   #   C20   0.49449954   0.97024227   0.18681766
  183 1     3      0.00000     16.03370     14.81245      1.90593   #   C21   0.41645466   0.71196603   0.09279682
  184 1     3      0.00000     14.72296     15.31543      1.85622   #   C22   0.38247701   0.73657359   0.09037643
  185 1     3      0.00000     14.06319     15.47470      0.62374   #   C23   0.36538022   0.74895560   0.03036887
  186 1     3      0.00000     14.72607     15.92511      9.71082   #   C24   0.38251710   0.73654460   0.47280557
  187 1     3      0.00000     16.03601     15.42071      9.73821   #   C25   0.41647427   0.71195189   0.47413893
  188 1     3      0.00000     16.68199     14.46849      0.70668   #   C26   0.43326637   0.69979051   0.03440736
  189 1     2      0.00000     11.96026     16.36724      1.64399   #   C27   0.31086105   0.78844016   0.08004330
  190 1     3      0.00000     16.03562     15.25245      8.25774   #   C28   0.41646973   0.70936742   0.40205716
  191 1     3      0.00000     16.03399     14.98072      3.38639   #   C29   0.41645670   0.71455100   0.16487835
  192 1     3      0.00000     16.03113     17.55545      5.76887   #   C30   0.41646481   0.83056889   0.28087766
  193 1     3      0.00000     16.03848     12.67770      5.87526   #   C31   0.41646159   0.59334875   0.28605789
  194 1     6      0.00000     12.56969     15.11136      5.82344   #    N1   0.32658423   0.71170051   0.28353445
  195 1     6      0.00000      0.22326     15.12189      5.82058   #    N2   0.00634137   0.71222241   0.28339567
  196 1     7      0.00000      7.82016     13.82743      5.75586   #    N3   0.20334011   0.64961953   0.28024438
  197 1     4      0.00000      0.54764     18.79908      3.31753   #   Cl1   0.01492138   0.90019520   0.16152570
  198 1     8      0.00000      0.29449     11.07816      3.49233   #    O1   0.00804813   0.52467887   0.17003630
  199 1     10     0.00000     12.75485     15.97333      0.52994   #    O2   0.33146475   0.77351823   0.02580202
  200 1     9      0.00000     17.14615     15.03881      3.88277   #    O3   0.44530244   0.71549876   0.18904648