Created by Ryther's code on 2025-07-29 22:46:52.076198, modified by xyan11@uic.edu. 

    432 atoms
    488 bonds
    832 angles
    912 dihedrals
    192 impropers

    5 atom types
    8 bond types
    13 angle types
    5 dihedral types
    2 improper types

0.00000000 30.52049269 xlo xhi
0.00000000 30.98178313 ylo yhi
0.00000000 21.1760667 zlo zhi
0.17674384 -1.05159273 2.61032303 xy xz yz 

Masses 

    1    12.0107  #   C
    2    1.00794  #   H
    3    14.0067  #   N
    4    15.9994  #   O
    5      65.38  #  Zn

Pair Coeffs

    1       0.10500      3.43085  #  C_R C_R
    2       0.04400      2.57113  #  H_ H_
    3       0.06900      3.26069  #  N_2 N_2
    4       0.06000      3.11815  #  O_2_M O_2_M
    5       0.06000      2.58361  #  Zn6f3 Zn6f3

Bond Coeffs

    1      54.94924      2.40433  #  O_2_M Zn6f3 bond order=0.5
    2      55.07699      2.48452  #  N_2 Zn6f3 bond order=0.5
    3     357.44038      1.08142  #  C_R H_ bond order=1.0
    4     931.53598      1.20133  #  C_R N_2 bond order=3.0
    5     462.65505      1.37926  #  C_R C_R bond order=1.5
    6     523.75938      1.32339  #  C_R C_R bond order=2.0
    7     391.66951      1.45800  #  C_R C_R bond order=1.0
    8     714.55744      1.26901  #  C_R O_2_M bond order=1.5

Angle Coeffs

    1  cosine/periodic         70.47472            1            4  #  N_2 Zn6f3 O_2_M
    2  cosine/periodic         67.02484            1            4  #  O_2_M Zn6f3 O_2_M
    3  cosine/periodic        179.74893           -1            3  #  C_R C_R N_2
    4  cosine/periodic         57.28902           -1            3  #  C_R C_R H_
    5  cosine/periodic         61.73740           -1            3  #  C_R C_R H_
    6  cosine/periodic        118.27773           -1            3  #  C_R C_R C_R
    7  cosine/periodic         51.62857           -1            3  #  C_R C_R H_
    8  cosine/periodic        102.18328           -1            3  #  C_R C_R C_R
    9  cosine/periodic        111.29751           -1            3  #  C_R C_R C_R
    10 cosine/periodic        137.71425           -1            3  #  C_R C_R O_2_M
    11 cosine/periodic        206.77843           -1            3  #  O_2_M C_R O_2_M
    12 fourier                 48.02888      0.36401      0.41847      0.28800  #  C_R N_2 Zn6f3
    13 cosine/periodic         21.77718           -1            3  #  C_R O_2_M Zn6f3

Dihedral Coeffs

    1      27.96100           -1            2  #  X C_R N_2 X bond order=3.0
    2       6.73711           -1            2  #  X C_R C_R X bond order=1.5
    3       4.87169           -1            2  #  X C_R C_R X bond order=2.0
    4       1.25000           -1            2  #  X C_R C_R X bond order=1.0
    5       6.73711           -1            2  #  X C_R O_2_M X bond order=1.5

Improper Coeffs

    1       2.00000      1.00000     -1.00000      0.00000            1  #  C_R X X X O_2 present=False
    2      16.66667      1.00000     -1.00000      0.00000            1  #  C_R X X X O_2 present=True

Atoms # a, b, c, alpha, beta, gamma: 30.5204926950, 30.9822872640, 21.3622432009, 82.9976246927, 92.8216224948, 89.6731445063 $$$atoms$$$

    1 1     5      0.00000     14.21537     15.49725      6.60506   #   Zn1   0.47376736   0.47392550   0.31191168
    2 1     5      0.00000      1.88197     15.51045      6.74874   #   Zn2   0.06989954   0.47378009   0.31869652
    3 1     2      0.00000      9.41653     15.33588      4.85420   #    H1   0.31367477   0.47568313   0.22923063
    4 1     2      0.00000      9.06362     15.61529      7.88517   #    H2   0.30706123   0.47264250   0.37236258
    5 1     2      0.00000      7.03372     15.39251      5.46851   #    H3   0.23660562   0.47506695   0.25824019
    6 1     2      0.00000      6.68082     15.67192      8.49949   #    H4   0.22999211   0.47202607   0.40137225
    7 1     2      0.00000      0.56860     11.38431      7.90792   #    H5   0.02955112   0.33598830   0.37343678
    8 1     2      0.00000      0.08599     10.80162      4.94244   #    H6   0.00895427   0.32897982   0.23339764
    9 1     2      0.00000      1.44705      9.37399      8.22016   #    H7   0.05922451   0.26985879   0.38818151
   10 1     2      0.00000      1.47412      7.00544      8.76756   #    H8   0.06145743   0.19123124   0.41403176
   11 1     2      0.00000     14.56205      6.14283      5.13366   #    H9   0.48444673   0.17784706   0.24242723
   12 1     2      0.00000     14.53498      8.51138      4.58625   #   H10   0.48221388   0.25647462   0.21657698
   13 1     2      0.00000      0.66286      4.71519      8.41137   #   H11   0.03471713   0.11872600   0.39721107
   14 1     2      0.00000      0.18025      4.13251      5.44589   #   H12   0.01411976   0.11171745   0.25717203
   15 1     2      0.00000     14.17432     13.67953      2.67063   #   H13   0.46626985   0.43090900   0.12611534
   16 1     2      0.00000     14.29447     13.38130      0.25122   #   H14   0.46626984   0.43090902   0.01186333
   17 1     2      0.00000      2.35985      0.53164      0.09561   #   H15   0.07737871   0.01677933   0.00451485
   18 1     2      0.00000      2.23975      0.82977      2.51417   #   H16   0.07737869   0.01677932   0.11872703
   19 1     1      0.00000     11.09336     15.46316      6.23489   #    C1   0.37087047   0.47429799   0.29443105
   20 1     1      0.00000      9.69583     15.43195      5.89634   #    C2   0.32452784   0.47463768   0.27844359
   21 1     1      0.00000      8.76482     15.51951      6.84620   #    C3   0.29557442   0.47368481   0.32329874
   22 1     1      0.00000      7.33253     15.48829      6.50749   #    C4   0.24809242   0.47402458   0.30730408
   23 1     1      0.00000      6.40152     15.57585      7.45735   #    C5   0.21913904   0.47307162   0.35215919
   24 1     1      0.00000      5.00399     15.54464      7.11880   #    C6   0.17279638   0.47341123   0.33617178
   25 1     1      0.00000      0.42754     11.57994      6.85434   #    C7   0.02315449   0.34649478   0.32368313
   26 1     1      0.00000      0.28722     10.57098      5.98249   #    C8   0.01730669   0.31739711   0.28251168
   27 1     1      0.00000      0.33533      9.13764      6.36432   #    C9   0.01978113   0.26961426   0.30054300
   28 1     1      0.00000      0.95881      8.68702      7.54341   #   C10   0.04223898   0.25037813   0.35622339
   29 1     1      0.00000      0.98715      7.32435      7.85373   #   C11   0.04393429   0.20516067   0.37087744
   30 1     1      0.00000      0.41352      6.37917      6.98949   #   C12   0.02389015   0.17809156   0.33006574
   31 1     1      0.00000     -0.20995      6.82980      5.81040   #   C13   0.00143232   0.19732769   0.27438535
   32 1     1      0.00000     15.02195      8.19246      5.50009   #   C14   0.49973695   0.24254515   0.25973129
   33 1     1      0.00000      0.46164      4.94584      7.37133   #   C15   0.02636462   0.13030871   0.34809706
   34 1     1      0.00000      0.32130      3.93687      6.49948   #   C16   0.02051659   0.10121101   0.30692565
   35 1     1      0.00000      0.61197     15.02389      2.78321   #   C17   0.02183556   0.47385289   0.13143177
   36 1     1      0.00000     14.95023     14.19623      2.11953   #   C18   0.49068619   0.44977914   0.10009065
   37 1     1      0.00000     15.01904     14.02541      0.73374   #   C19   0.49068616   0.44977917   0.03464958
   38 1     1      0.00000      0.22525     15.98382     10.57061   #   C20   0.02183552   0.47385291   0.49917699
   39 1     1      0.00000      1.67225     15.50570      0.64624   #   C21   0.05295918   0.49790671   0.03051731
   40 1     1      0.00000      1.60343     15.67653      2.03213   #   C22   0.05295917   0.49790670   0.09596345
   41 1     1      0.00000      0.29844     15.74914      9.10103   #   C23   0.02185245   0.47212513   0.42977888
   42 1     1      0.00000      0.53868     15.25858      4.25278   #   C24   0.02181548   0.47558100   0.20082943
   43 1     1      0.00000      0.32724      2.44695      6.51371   #   C25   0.02101296   0.05306422   0.30759786
   44 1     1      0.00000      0.42152     13.06986      6.84009   #   C26   0.02265495   0.39464139   0.32301051
   45 1     3      0.00000     12.21789     15.48823      6.50690   #    N1   0.40815988   0.47402506   0.30727615
   46 1     3      0.00000      3.87945     15.51956      6.84679   #    N2   0.13550697   0.47368407   0.32332668
   47 1     4      0.00000      1.62481     15.34229      4.80051   #    O1   0.05829043   0.47610390   0.22669485
   48 1     4      0.00000      1.43372     15.67543      8.66234   #    O2   0.05833961   0.47149154   0.40906283
   49 1     4      0.00000      1.43995      1.95195      6.57307   #    O3   0.05766122   0.03685088   0.31040073
   50 1     4      0.00000      1.53021     13.57489      6.88978   #    O4   0.05896879   0.41074456   0.32535690
   51 1     4      0.00000     14.47876      1.94192      6.46402   #    O5   0.48469807   0.03696103   0.30525130
   52 1     4      0.00000     14.47253     15.66542      8.55330   #    O6   0.48537646   0.47160220   0.40391334
   53 1     4      0.00000     14.66362     15.33228      4.69144   #    O7   0.48532728   0.47621455   0.22154460
   54 1     4      0.00000     14.56902     13.56487      6.78072   #    O8   0.48600564   0.41085520   0.32020670
   55 1     5      0.00000     13.68958     16.80241     17.19310   #   Zn1   0.47376736   0.47392550   0.81191168
   56 1     5      0.00000      1.35617     16.81561     17.33677   #   Zn2   0.06989954   0.47378009   0.81869652
   57 1     2      0.00000      8.89073     16.64104     15.44224   #    H1   0.31367477   0.47568313   0.72923063
   58 1     2      0.00000      8.53783     16.92046     18.47321   #    H2   0.30706123   0.47264250   0.87236258
   59 1     2      0.00000      6.50793     16.69767     16.05654   #    H3   0.23660562   0.47506695   0.75824019
   60 1     2      0.00000      6.15502     16.97708     19.08752   #    H4   0.22999211   0.47202607   0.90137225
   61 1     2      0.00000      0.04280     12.68947     18.49596   #    H5   0.02955112   0.33598830   0.87343678
   62 1     2      0.00000     -0.43980     12.10679     15.53048   #    H6   0.00895427   0.32897982   0.73339764
   63 1     2      0.00000      0.92125     10.67915     18.80819   #    H7   0.05922451   0.26985879   0.88818151
   64 1     2      0.00000      0.94832      8.31060     19.35560   #    H8   0.06145743   0.19123124   0.91403176
   65 1     2      0.00000     14.03626      7.44799     15.72169   #    H9   0.48444673   0.17784706   0.74242723
   66 1     2      0.00000     14.00919      9.81654     15.17428   #   H10   0.48221388   0.25647462   0.71657698
   67 1     2      0.00000      0.13707      6.02035     18.99940   #   H11   0.03471713   0.11872600   0.89721107
   68 1     2      0.00000     -0.34555      5.43767     16.03393   #   H12   0.01411976   0.11171745   0.75717203
   69 1     2      0.00000     13.64853     14.98469     13.25866   #   H13   0.46626985   0.43090900   0.62611534
   70 1     2      0.00000     13.76867     14.68646     10.83925   #   H14   0.46626984   0.43090902   0.51186333
   71 1     2      0.00000      1.83406      1.83680     10.68364   #   H15   0.07737871   0.01677933   0.50451485
   72 1     2      0.00000      1.71395      2.13493     13.10220   #   H16   0.07737869   0.01677932   0.61872703
   73 1     1      0.00000     10.56756     16.76832     16.82292   #    C1   0.37087047   0.47429799   0.79443105
   74 1     1      0.00000      9.17003     16.73711     16.48437   #    C2   0.32452784   0.47463768   0.77844359
   75 1     1      0.00000      8.23902     16.82468     17.43423   #    C3   0.29557442   0.47368481   0.82329874
   76 1     1      0.00000      6.80673     16.79345     17.09553   #    C4   0.24809242   0.47402458   0.80730408
   77 1     1      0.00000      5.87572     16.88101     18.04538   #    C5   0.21913904   0.47307162   0.85215919
   78 1     1      0.00000      4.47819     16.84980     17.70683   #    C6   0.17279638   0.47341123   0.83617178
   79 1     1      0.00000     -0.09825     12.88511     17.44237   #    C7   0.02315449   0.34649478   0.82368313
   80 1     1      0.00000     -0.23858     11.87614     16.57052   #    C8   0.01730669   0.31739711   0.78251168
   81 1     1      0.00000     -0.19046     10.44281     16.95235   #    C9   0.01978113   0.26961426   0.80054300
   82 1     1      0.00000      0.43301      9.99218     18.13144   #   C10   0.04223898   0.25037813   0.85622339
   83 1     1      0.00000      0.46135      8.62951     18.44176   #   C11   0.04393429   0.20516067   0.87087744
   84 1     1      0.00000     -0.11228      7.68433     17.57753   #   C12   0.02389015   0.17809156   0.83006574
   85 1     1      0.00000     -0.73575      8.13496     16.39844   #   C13   0.00143232   0.19732769   0.77438535
   86 1     1      0.00000     14.49616      9.49763     16.08812   #   C14   0.49973695   0.24254515   0.75973129
   87 1     1      0.00000     -0.06416      6.25100     17.95936   #   C15   0.02636462   0.13030871   0.84809706
   88 1     1      0.00000     -0.20449      5.24203     17.08751   #   C16   0.02051659   0.10121101   0.80692565
   89 1     1      0.00000      0.08617     16.32905     13.37124   #   C17   0.02183556   0.47385289   0.63143177
   90 1     1      0.00000     14.42443     15.50139     12.70756   #   C18   0.49068619   0.44977914   0.60009065
   91 1     1      0.00000     14.49325     15.33057     11.32178   #   C19   0.49068616   0.44977917   0.53464958
   92 1     1      0.00000     -0.30055     17.28898     21.15864   #   C20   0.02183552   0.47385291   0.99917699
   93 1     1      0.00000      1.14645     16.81086     11.23427   #   C21   0.05295918   0.49790671   0.53051731
   94 1     1      0.00000      1.07763     16.98169     12.62016   #   C22   0.05295917   0.49790670   0.59596345
   95 1     1      0.00000     -0.22736     17.05430     19.68906   #   C23   0.02185245   0.47212513   0.92977888
   96 1     1      0.00000      0.01289     16.56374     14.84081   #   C24   0.02181548   0.47558100   0.70082943
   97 1     1      0.00000     -0.19856      3.75212     17.10175   #   C25   0.02101296   0.05306422   0.80759786
   98 1     1      0.00000     -0.10428     14.37502     17.42813   #   C26   0.02265495   0.39464139   0.82301051
   99 1     3      0.00000     11.69210     16.79339     17.09493   #    N1   0.40815988   0.47402506   0.80727615
  100 1     3      0.00000      3.35366     16.82473     17.43482   #    N2   0.13550697   0.47368407   0.82332668
  101 1     4      0.00000      1.09901     16.64746     15.38854   #    O1   0.05829043   0.47610390   0.72669485
  102 1     4      0.00000      0.90792     16.98060     19.25038   #    O2   0.05833961   0.47149154   0.90906283
  103 1     4      0.00000      0.91415      3.25711     17.16110   #    O3   0.05766122   0.03685088   0.81040073
  104 1     4      0.00000      1.00441     14.88005     17.47781   #    O4   0.05896879   0.41074456   0.82535690
  105 1     4      0.00000     13.95296      3.24708     17.05206   #    O5   0.48469807   0.03696103   0.80525130
  106 1     4      0.00000     13.94673     16.97058     19.14133   #    O6   0.48537646   0.47160220   0.90391334
  107 1     4      0.00000     14.13782     16.63744     15.27948   #    O7   0.48532728   0.47621455   0.72154460
  108 1     4      0.00000     14.04322     14.87003     17.36875   #    O8   0.48600564   0.41085520   0.82020670
  109 1     5      0.00000     14.30374     30.98814      6.60506   #   Zn1   0.47376736   0.97392550   0.31191168
  110 1     5      0.00000      1.97034     31.00134      6.74874   #   Zn2   0.06989954   0.97378009   0.31869652
  111 1     2      0.00000      9.50490     30.82677      4.85420   #    H1   0.31367477   0.97568313   0.22923063
  112 1     2      0.00000      9.15199     31.10619      7.88517   #    H2   0.30706123   0.97264250   0.37236258
  113 1     2      0.00000      7.12209     30.88340      5.46851   #    H3   0.23660562   0.97506695   0.25824019
  114 1     2      0.00000      6.76919     31.16281      8.49949   #    H4   0.22999211   0.97202607   0.40137225
  115 1     2      0.00000      0.65697     26.87520      7.90792   #    H5   0.02955112   0.83598830   0.37343678
  116 1     2      0.00000      0.17437     26.29252      4.94244   #    H6   0.00895427   0.82897982   0.23339764
  117 1     2      0.00000      1.53542     24.86488      8.22016   #    H7   0.05922451   0.76985879   0.38818151
  118 1     2      0.00000      1.56249     22.49633      8.76756   #    H8   0.06145743   0.69123124   0.41403176
  119 1     2      0.00000     14.65042     21.63372      5.13366   #    H9   0.48444673   0.67784706   0.24242723
  120 1     2      0.00000     14.62336     24.00227      4.58625   #   H10   0.48221388   0.75647462   0.21657698
  121 1     2      0.00000      0.75124     20.20608      8.41137   #   H11   0.03471713   0.61872600   0.39721107
  122 1     2      0.00000      0.26862     19.62340      5.44589   #   H12   0.01411976   0.61171745   0.25717203
  123 1     2      0.00000     14.26270     29.17042      2.67063   #   H13   0.46626985   0.93090900   0.12611534
  124 1     2      0.00000     14.38284     28.87219      0.25122   #   H14   0.46626984   0.93090902   0.01186333
  125 1     2      0.00000      2.44823     16.02253      0.09561   #   H15   0.07737871   0.51677933   0.00451485
  126 1     2      0.00000      2.32812     16.32066      2.51417   #   H16   0.07737869   0.51677932   0.11872703
  127 1     1      0.00000     11.18173     30.95405      6.23489   #    C1   0.37087047   0.97429799   0.29443105
  128 1     1      0.00000      9.78420     30.92284      5.89634   #    C2   0.32452784   0.97463768   0.27844359
  129 1     1      0.00000      8.85319     31.01041      6.84620   #    C3   0.29557442   0.97368481   0.32329874
  130 1     1      0.00000      7.42090     30.97918      6.50749   #    C4   0.24809242   0.97402458   0.30730408
  131 1     1      0.00000      6.48989     31.06674      7.45735   #    C5   0.21913904   0.97307162   0.35215919
  132 1     1      0.00000      5.09236     31.03553      7.11880   #    C6   0.17279638   0.97341123   0.33617178
  133 1     1      0.00000      0.51592     27.07084      6.85434   #    C7   0.02315449   0.84649478   0.32368313
  134 1     1      0.00000      0.37559     26.06187      5.98249   #    C8   0.01730669   0.81739711   0.28251168
  135 1     1      0.00000      0.42371     24.62854      6.36432   #    C9   0.01978113   0.76961426   0.30054300
  136 1     1      0.00000      1.04718     24.17791      7.54341   #   C10   0.04223898   0.75037813   0.35622339
  137 1     1      0.00000      1.07552     22.81524      7.85373   #   C11   0.04393429   0.70516067   0.37087744
  138 1     1      0.00000      0.50189     21.87006      6.98949   #   C12   0.02389015   0.67809156   0.33006574
  139 1     1      0.00000     -0.12158     22.32069      5.81040   #   C13   0.00143232   0.69732769   0.27438535
  140 1     1      0.00000     15.11033     23.68336      5.50009   #   C14   0.49973695   0.74254515   0.25973129
  141 1     1      0.00000      0.55001     20.43673      7.37133   #   C15   0.02636462   0.63030871   0.34809706
  142 1     1      0.00000      0.40968     19.42776      6.49948   #   C16   0.02051659   0.60121101   0.30692565
  143 1     1      0.00000      0.70034     30.51478      2.78321   #   C17   0.02183556   0.97385289   0.13143177
  144 1     1      0.00000     15.03860     29.68712      2.11953   #   C18   0.49068619   0.94977914   0.10009065
  145 1     1      0.00000     15.10741     29.51630      0.73374   #   C19   0.49068616   0.94977917   0.03464958
  146 1     1      0.00000      0.31362     31.47471     10.57061   #   C20   0.02183552   0.97385291   0.49917699
  147 1     1      0.00000      1.76062     30.99659      0.64624   #   C21   0.05295918   0.99790671   0.03051731
  148 1     1      0.00000      1.69180     31.16742      2.03213   #   C22   0.05295917   0.99790670   0.09596345
  149 1     1      0.00000      0.38681     31.24003      9.10103   #   C23   0.02185245   0.97212513   0.42977888
  150 1     1      0.00000      0.62706     30.74947      4.25278   #   C24   0.02181548   0.97558100   0.20082943
  151 1     1      0.00000      0.41561     17.93785      6.51371   #   C25   0.02101296   0.55306422   0.30759786
  152 1     1      0.00000      0.50989     28.56075      6.84009   #   C26   0.02265495   0.89464139   0.32301051
  153 1     3      0.00000     12.30626     30.97912      6.50690   #    N1   0.40815988   0.97402506   0.30727615
  154 1     3      0.00000      3.96782     31.01046      6.84679   #    N2   0.13550697   0.97368407   0.32332668
  155 1     4      0.00000      1.71318     30.83319      4.80051   #    O1   0.05829043   0.97610390   0.22669485
  156 1     4      0.00000      1.52209     31.16633      8.66234   #    O2   0.05833961   0.97149154   0.40906283
  157 1     4      0.00000      1.52832     17.44284      6.57307   #    O3   0.05766122   0.53685088   0.31040073
  158 1     4      0.00000      1.61858     29.06578      6.88978   #    O4   0.05896879   0.91074456   0.32535690
  159 1     4      0.00000     14.56713     17.43281      6.46402   #    O5   0.48469807   0.53696103   0.30525130
  160 1     4      0.00000     14.56090     31.15631      8.55330   #    O6   0.48537646   0.97160220   0.40391334
  161 1     4      0.00000     14.75199     30.82317      4.69144   #    O7   0.48532728   0.97621455   0.22154460
  162 1     4      0.00000     14.65739     29.05576      6.78072   #    O8   0.48600564   0.91085520   0.32020670
  163 1     5      0.00000     13.77795     32.29330     17.19310   #   Zn1   0.47376736   0.97392550   0.81191168
  164 1     5      0.00000      1.44454     32.30651     17.33677   #   Zn2   0.06989954   0.97378009   0.81869652
  165 1     2      0.00000      8.97910     32.13193     15.44224   #    H1   0.31367477   0.97568313   0.72923063
  166 1     2      0.00000      8.62620     32.41135     18.47321   #    H2   0.30706123   0.97264250   0.87236258
  167 1     2      0.00000      6.59630     32.18856     16.05654   #    H3   0.23660562   0.97506695   0.75824019
  168 1     2      0.00000      6.24340     32.46797     19.08752   #    H4   0.22999211   0.97202607   0.90137225
  169 1     2      0.00000      0.13117     28.18036     18.49596   #    H5   0.02955112   0.83598830   0.87343678
  170 1     2      0.00000     -0.35143     27.59768     15.53048   #    H6   0.00895427   0.82897982   0.73339764
  171 1     2      0.00000      1.00962     26.17004     18.80819   #    H7   0.05922451   0.76985879   0.88818151
  172 1     2      0.00000      1.03669     23.80149     19.35560   #    H8   0.06145743   0.69123124   0.91403176
  173 1     2      0.00000     14.12463     22.93889     15.72169   #    H9   0.48444673   0.67784706   0.74242723
  174 1     2      0.00000     14.09756     25.30743     15.17428   #   H10   0.48221388   0.75647462   0.71657698
  175 1     2      0.00000      0.22544     21.51125     18.99940   #   H11   0.03471713   0.61872600   0.89721107
  176 1     2      0.00000     -0.25718     20.92856     16.03393   #   H12   0.01411976   0.61171745   0.75717203
  177 1     2      0.00000     13.73690     30.47558     13.25866   #   H13   0.46626985   0.93090900   0.62611534
  178 1     2      0.00000     13.85705     30.17735     10.83925   #   H14   0.46626984   0.93090902   0.51186333
  179 1     2      0.00000      1.92243     17.32769     10.68364   #   H15   0.07737871   0.51677933   0.50451485
  180 1     2      0.00000      1.80232     17.62582     13.10220   #   H16   0.07737869   0.51677932   0.61872703
  181 1     1      0.00000     10.65593     32.25921     16.82292   #    C1   0.37087047   0.97429799   0.79443105
  182 1     1      0.00000      9.25841     32.22800     16.48437   #    C2   0.32452784   0.97463768   0.77844359
  183 1     1      0.00000      8.32739     32.31557     17.43423   #    C3   0.29557442   0.97368481   0.82329874
  184 1     1      0.00000      6.89510     32.28434     17.09553   #    C4   0.24809242   0.97402458   0.80730408
  185 1     1      0.00000      5.96409     32.37190     18.04538   #    C5   0.21913904   0.97307162   0.85215919
  186 1     1      0.00000      4.56656     32.34069     17.70683   #    C6   0.17279638   0.97341123   0.83617178
  187 1     1      0.00000     -0.00988     28.37600     17.44237   #    C7   0.02315449   0.84649478   0.82368313
  188 1     1      0.00000     -0.15021     27.36703     16.57052   #    C8   0.01730669   0.81739711   0.78251168
  189 1     1      0.00000     -0.10209     25.93370     16.95235   #    C9   0.01978113   0.76961426   0.80054300
  190 1     1      0.00000      0.52138     25.48307     18.13144   #   C10   0.04223898   0.75037813   0.85622339
  191 1     1      0.00000      0.54972     24.12041     18.44176   #   C11   0.04393429   0.70516067   0.87087744
  192 1     1      0.00000     -0.02390     23.17523     17.57753   #   C12   0.02389015   0.67809156   0.83006574
  193 1     1      0.00000     -0.64737     23.62585     16.39844   #   C13   0.00143232   0.69732769   0.77438535
  194 1     1      0.00000     14.58453     24.98852     16.08812   #   C14   0.49973695   0.74254515   0.75973129
  195 1     1      0.00000      0.02421     21.74190     17.95936   #   C15   0.02636462   0.63030871   0.84809706
  196 1     1      0.00000     -0.11612     20.73293     17.08751   #   C16   0.02051659   0.60121101   0.80692565
  197 1     1      0.00000      0.17455     31.81994     13.37124   #   C17   0.02183556   0.97385289   0.63143177
  198 1     1      0.00000     14.51280     30.99228     12.70756   #   C18   0.49068619   0.94977914   0.60009065
  199 1     1      0.00000     14.58162     30.82146     11.32178   #   C19   0.49068616   0.94977917   0.53464958
  200 1     1      0.00000     -0.21217     32.77987     21.15864   #   C20   0.02183552   0.97385291   0.99917699
  201 1     1      0.00000      1.23483     32.30175     11.23427   #   C21   0.05295918   0.99790671   0.53051731
  202 1     1      0.00000      1.16600     32.47259     12.62016   #   C22   0.05295917   0.99790670   0.59596345
  203 1     1      0.00000     -0.13898     32.54519     19.68906   #   C23   0.02185245   0.97212513   0.92977888
  204 1     1      0.00000      0.10126     32.05463     14.84081   #   C24   0.02181548   0.97558100   0.70082943
  205 1     1      0.00000     -0.11019     19.24301     17.10175   #   C25   0.02101296   0.55306422   0.80759786
  206 1     1      0.00000     -0.01591     29.86591     17.42813   #   C26   0.02265495   0.89464139   0.82301051
  207 1     3      0.00000     11.78047     32.28428     17.09493   #    N1   0.40815988   0.97402506   0.80727615
  208 1     3      0.00000      3.44203     32.31562     17.43482   #    N2   0.13550697   0.97368407   0.82332668
  209 1     4      0.00000      1.18739     32.13835     15.38854   #    O1   0.05829043   0.97610390   0.72669485
  210 1     4      0.00000      0.99630     32.47149     19.25038   #    O2   0.05833961   0.97149154   0.90906283
  211 1     4      0.00000      1.00252     18.74801     17.16110   #    O3   0.05766122   0.53685088   0.81040073
  212 1     4      0.00000      1.09279     30.37094     17.47781   #    O4   0.05896879   0.91074456   0.82535690
  213 1     4      0.00000     14.04133     18.73798     17.05206   #    O5   0.48469807   0.53696103   0.80525130
  214 1     4      0.00000     14.03510     32.46147     19.14133   #    O6   0.48537646   0.97160220   0.90391334
  215 1     4      0.00000     14.22620     32.12833     15.27948   #    O7   0.48532728   0.97621455   0.72154460
  216 1     4      0.00000     14.13160     30.36092     17.36875   #    O8   0.48600564   0.91085520   0.82020670
  217 1     5      0.00000     29.47562     15.49725      6.60506   #   Zn1   0.97376736   0.47392550   0.31191168
  218 1     5      0.00000     17.14221     15.51045      6.74874   #   Zn2   0.56989954   0.47378009   0.31869652
  219 1     2      0.00000     24.67677     15.33588      4.85420   #    H1   0.81367477   0.47568313   0.22923063
  220 1     2      0.00000     24.32387     15.61529      7.88517   #    H2   0.80706123   0.47264250   0.37236258
  221 1     2      0.00000     22.29397     15.39251      5.46851   #    H3   0.73660562   0.47506695   0.25824019
  222 1     2      0.00000     21.94107     15.67192      8.49949   #    H4   0.72999211   0.47202607   0.40137225
  223 1     2      0.00000     15.82884     11.38431      7.90792   #    H5   0.52955112   0.33598830   0.37343678
  224 1     2      0.00000     15.34624     10.80162      4.94244   #    H6   0.50895427   0.32897982   0.23339764
  225 1     2      0.00000     16.70729      9.37399      8.22016   #    H7   0.55922451   0.26985879   0.38818151
  226 1     2      0.00000     16.73436      7.00544      8.76756   #    H8   0.56145743   0.19123124   0.41403176
  227 1     2      0.00000     29.82230      6.14283      5.13366   #    H9   0.98444673   0.17784706   0.24242723
  228 1     2      0.00000     29.79523      8.51138      4.58625   #   H10   0.98221388   0.25647462   0.21657698
  229 1     2      0.00000     15.92311      4.71519      8.41137   #   H11   0.53471713   0.11872600   0.39721107
  230 1     2      0.00000     15.44049      4.13251      5.44589   #   H12   0.51411976   0.11171745   0.25717203
  231 1     2      0.00000     29.43457     13.67953      2.67063   #   H13   0.96626985   0.43090900   0.12611534
  232 1     2      0.00000     29.55472     13.38130      0.25122   #   H14   0.96626984   0.43090902   0.01186333
  233 1     2      0.00000     17.62010      0.53164      0.09561   #   H15   0.57737871   0.01677933   0.00451485