Created by Ryther's code on 2025-07-31 16:51:45.149927, modified by xyan11@uic.edu. 

    1152 atoms
    1536 bonds
    3648 angles
    2880 dihedrals
    576 impropers

    6 atom types
    8 bond types
    17 angle types
    4 dihedral types
    3 improper types

0.00000000 22.016 xlo xhi
0.00000000 24.004 ylo yhi
0.00000000 38.946 zlo zhi
0.0 0.0 0.0 xy xz yz 

Masses 

    1    12.0107  #   C
    2    1.00794  #   H
    3    14.0067  #   N
    4    15.9994  #   O
    5    15.9994  #   O
    6  140.90765  #  Pr

Pair Coeffs

    1       0.10500      3.43085  #  C_R C_R
    2       0.04400      2.57113  #  H_ H_
    3       0.06900      3.26069  #  N_R N_R
    4       0.06000      3.11815  #  O_1 O_1
    5       0.06000      3.11815  #  O_2_M O_2_M
    6       0.01000      3.21258  #  Pr8f4 Pr8f4

Bond Coeffs

    1     157.93625      2.51888  #  O_2_M Pr8f4 bond order=0.5
    2     149.83932      2.65101  #  N_R Pr8f4 bond order=0.5
    3     357.44038      1.08142  #  C_R H_ bond order=1.0
    4     663.66675      1.34507  #  C_R N_R bond order=1.5
    5     462.65505      1.37926  #  C_R C_R bond order=1.5
    6     391.66951      1.45800  #  C_R C_R bond order=1.0
    7     714.55744      1.26901  #  C_R O_2_M bond order=1.5
    8     706.67500      1.27367  #  C_R O_1 bond order=1.5

Angle Coeffs

    1  fourier                 67.30808      0.34375      0.37500      0.28125  #  O_2_M Pr8f4 O_2_M
    2  fourier                 68.79537      0.34375      0.37500      0.28125  #  N_R Pr8f4 O_2_M
    3  fourier                 70.62627      0.34375      0.37500      0.28125  #  N_R Pr8f4 N_R
    4  cosine/periodic         79.78069           -1            3  #  H_ C_R N_R
    5  cosine/periodic        212.40917           -1            3  #  N_R C_R N_R
    6  cosine/periodic        102.18328           -1            3  #  C_R C_R C_R
    7  cosine/periodic        153.68727           -1            3  #  C_R C_R N_R
    8  cosine/periodic        140.82706           -1            3  #  C_R C_R N_R
    9  cosine/periodic         57.28902           -1            3  #  C_R C_R H_
    10 cosine/periodic        111.29751           -1            3  #  C_R C_R C_R
    11 cosine/periodic        137.71425           -1            3  #  C_R C_R O_2_M
    12 cosine/periodic        206.77843           -1            3  #  O_2_M C_R O_2_M
    13 cosine/periodic        137.04263           -1            3  #  C_R C_R O_1
    14 cosine/periodic        205.62388           -1            3  #  O_1 C_R O_2_M
    15 cosine/periodic         55.09283           -1            3  #  C_R N_R Pr8f4
    16 cosine/periodic        120.00052           -1            3  #  C_R N_R C_R
    17 cosine/periodic         64.51162           -1            3  #  C_R O_2_M Pr8f4

Dihedral Coeffs

    1       3.36856           -1            2  #  X C_R N_R X bond order=1.5
    2       3.36856           -1            2  #  X C_R C_R X bond order=1.5
    3       1.25000           -1            2  #  X C_R C_R X bond order=1.0
    4       6.73711           -1            2  #  X C_R O_2_M X bond order=1.5

Improper Coeffs

    1       2.00000      1.00000     -1.00000      0.00000            1  #  C_R X X X O_2 present=False
    2      16.66667      1.00000     -1.00000      0.00000            1  #  C_R X X X O_2 present=True
    3       2.00000      1.00000     -1.00000      0.00000            1  #  N_R X X X O_2 present=False

Atoms # a, b, c, alpha, beta, gamma: 22.0160000000, 24.0040000000, 38.9460000000, 90.0000000000, 90.0000000000, 90.0000000000 $$$atoms$$$

    1 1     6      0.00000      9.50871      7.90920     12.62590   #   Pr1   0.43190000   0.32949500   0.32419000
    2 1     6      0.00000      4.20814      5.72699     16.79507   #   Pr2   0.19114000   0.23858500   0.43124000
    3 1     6      0.00000      1.49929      4.09280      2.88940   #   Pr3   0.06810000   0.17050500   0.07419000
    4 1     6      0.00000      6.79986      6.27501      7.05857   #   Pr4   0.30886000   0.26141500   0.18124000
    5 1     6      0.00000      7.00329      1.90820     12.62590   #   Pr5   0.31810000   0.07949500   0.32419000
    6 1     6      0.00000      1.29586     11.72799     16.79507   #   Pr6   0.05886000   0.48858500   0.43124000
    7 1     6      0.00000      4.00471     10.09380      2.88940   #   Pr7   0.18190000   0.42050500   0.07419000
    8 1     6      0.00000      9.71214      0.27401      7.05857   #   Pr8   0.44114000   0.01141500   0.18124000
    9 1     2      0.00000      7.16731      6.09702     14.73327   #    H1   0.32555000   0.25400000   0.37830000
   10 1     2      0.00000      8.46185      9.12872     17.83532   #    H2   0.38435000   0.38030000   0.45795000
   11 1     2      0.00000      1.42664      7.22040     14.79364   #    H3   0.06480000   0.30080000   0.37985000
   12 1     2      0.00000     10.94195      2.93809     14.57554   #    H4   0.49700000   0.12240000   0.37425000
   13 1     2      0.00000      3.84069      5.90498      4.99677   #    H5   0.17445000   0.24600000   0.12830000
   14 1     2      0.00000      2.54615      2.87328      8.09882   #    H6   0.11565000   0.11970000   0.20795000
   15 1     2      0.00000      9.58136      4.78160      5.05714   #    H7   0.43520000   0.19920000   0.12985000
   16 1     2      0.00000      0.06605      9.06391      4.83904   #    H8   0.00300000   0.37760000   0.12425000
   17 1     2      0.00000      9.34469      0.09602     14.73327   #    H9   0.42445000   0.00400000   0.37830000
   18 1     2      0.00000      8.05015      3.12772     17.83532   #   H10   0.36565000   0.13030000   0.45795000
   19 1     2      0.00000      4.07736      1.21940     14.79364   #   H11   0.18520000   0.05080000   0.37985000
   20 1     2      0.00000      5.57005      8.93909     14.57554   #   H12   0.25300000   0.37240000   0.37425000
   21 1     2      0.00000      1.66331     11.90598      4.99677   #   H13   0.07555000   0.49600000   0.12830000
   22 1     2      0.00000      2.95785      8.87428      8.09882   #   H14   0.13435000   0.36970000   0.20795000
   23 1     2      0.00000      6.93064     10.78260      5.05714   #   H15   0.31480000   0.44920000   0.12985000
   24 1     2      0.00000      5.43795      3.06291      4.83904   #   H16   0.24700000   0.12760000   0.12425000
   25 1     1      0.00000      7.40398      6.75473     15.34667   #    C1   0.33630000   0.28140000   0.39405000
   26 1     1      0.00000      7.00439      7.80610     17.32708   #    C2   0.31815000   0.32520000   0.44490000
   27 1     1      0.00000      8.17344      8.54062     17.17519   #    C3   0.37125000   0.35580000   0.44100000
   28 1     1      0.00000      8.88786      8.36899     16.01849   #    C4   0.40370000   0.34865000   0.41130000
   29 1     1      0.00000     10.05911      9.25954     15.66213   #    C5   0.45690000   0.38575000   0.40215000
   30 1     1      0.00000      6.08963      8.03294     18.51103   #    C6   0.27660000   0.33465000   0.47530000
   31 1     1      0.00000      1.11951      6.34306     14.76443   #    C7   0.05085000   0.26425000   0.37910000
   32 1     1      0.00000      1.38811      4.15629     15.32915   #    C8   0.06305000   0.17315000   0.39360000
   33 1     1      0.00000      0.22897      3.81784     14.64175   #    C9   0.01040000   0.15905000   0.37595000
   34 1     1      0.00000     10.55447      4.86321     14.06924   #   C10   0.47940000   0.20260000   0.36125000
   35 1     1      0.00000      9.24012      4.62677     13.32927   #   C11   0.41970000   0.19275000   0.34225000
   36 1     1      0.00000      2.23903      3.08331     16.01070   #   C12   0.10170000   0.12845000   0.41110000
   37 1     1      0.00000      3.54788      4.60277      0.34662   #   C13   0.16115000   0.19175000   0.00890000
   38 1     1      0.00000      2.20270      5.22687     19.35227   #   C14   0.10005000   0.21775000   0.49690000
   39 1     1      0.00000      3.60402      5.24727      5.61017   #   C15   0.16370000   0.21860000   0.14405000
   40 1     1      0.00000      4.00361      4.19590      7.59058   #   C16   0.18185000   0.17480000   0.19490000
   41 1     1      0.00000      2.83456      3.46138      7.43869   #   C17   0.12875000   0.14420000   0.19100000
   42 1     1      0.00000      2.12014      3.63301      6.28199   #   C18   0.09630000   0.15135000   0.16130000
   43 1     1      0.00000      0.94889      2.74246      5.92563   #   C19   0.04310000   0.11425000   0.15215000
   44 1     1      0.00000      4.91837      3.96906      8.77453   #   C20   0.22340000   0.16535000   0.22530000
   45 1     1      0.00000      9.88849      5.65894      5.02793   #   C21   0.44915000   0.23575000   0.12910000
   46 1     1      0.00000      9.61989      7.84571      5.59265   #   C22   0.43695000   0.32685000   0.14360000
   47 1     1      0.00000     10.77903      8.18416      4.90525   #   C23   0.48960000   0.34095000   0.12595000
   48 1     1      0.00000      0.45353      7.13879      4.33274   #   C24   0.02060000   0.29740000   0.11125000
   49 1     1      0.00000      1.76788      7.37523      3.59277   #   C25   0.08030000   0.30725000   0.09225000
   50 1     1      0.00000      8.76897      8.91869      6.27420   #   C26   0.39830000   0.37155000   0.16110000
   51 1     1      0.00000      7.46012      7.39923     10.08312   #   C27   0.33885000   0.30825000   0.25890000
   52 1     1      0.00000      8.80530      6.77513      9.61577   #   C28   0.39995000   0.28225000   0.24690000
   53 1     1      0.00000      9.10802      0.75373     15.34667   #   C29   0.41370000   0.03140000   0.39405000
   54 1     1      0.00000      9.50761      1.80510     17.32708   #   C30   0.43185000   0.07520000   0.44490000
   55 1     1      0.00000      8.33856      2.53962     17.17519   #   C31   0.37875000   0.10580000   0.44100000
   56 1     1      0.00000      7.62414      2.36799     16.01849   #   C32   0.34630000   0.09865000   0.41130000
   57 1     1      0.00000      6.45289      3.25854     15.66213   #   C33   0.29310000   0.13575000   0.40215000
   58 1     1      0.00000     10.42237      2.03194     18.51103   #   C34   0.47340000   0.08465000   0.47530000
   59 1     1      0.00000      4.38449      0.34206     14.76443   #   C35   0.19915000   0.01425000   0.37910000
   60 1     1      0.00000      4.11589     10.15729     15.32915   #   C36   0.18695000   0.42315000   0.39360000
   61 1     1      0.00000      5.27503      9.81884     14.64175   #   C37   0.23960000   0.40905000   0.37595000
   62 1     1      0.00000      5.95753     10.86421     14.06924   #   C38   0.27060000   0.45260000   0.36125000
   63 1     1      0.00000      7.27188     10.62777     13.32927   #   C39   0.33030000   0.44275000   0.34225000
   64 1     1      0.00000      3.26497      9.08431     16.01070   #   C40   0.14830000   0.37845000   0.41110000
   65 1     1      0.00000      1.95612     10.60377      0.34662   #   C41   0.08885000   0.44175000   0.00890000
   66 1     1      0.00000      3.30130     11.22787     19.35227   #   C42   0.14995000   0.46775000   0.49690000
   67 1     1      0.00000      1.89998     11.24827      5.61017   #   C43   0.08630000   0.46860000   0.14405000
   68 1     1      0.00000      1.50039     10.19690      7.59058   #   C44   0.06815000   0.42480000   0.19490000
   69 1     1      0.00000      2.66944      9.46238      7.43869   #   C45   0.12125000   0.39420000   0.19100000
   70 1     1      0.00000      3.38386      9.63401      6.28199   #   C46   0.15370000   0.40135000   0.16130000
   71 1     1      0.00000      4.55511      8.74346      5.92563   #   C47   0.20690000   0.36425000   0.15215000
   72 1     1      0.00000      0.58563      9.97006      8.77453   #   C48   0.02660000   0.41535000   0.22530000
   73 1     1      0.00000      6.62351     11.65994      5.02793   #   C49   0.30085000   0.48575000   0.12910000
   74 1     1      0.00000      6.89211      1.84471      5.59265   #   C50   0.31305000   0.07685000   0.14360000
   75 1     1      0.00000      5.73297      2.18316      4.90525   #   C51   0.26040000   0.09095000   0.12595000
   76 1     1      0.00000      5.05047      1.13779      4.33274   #   C52   0.22940000   0.04740000   0.11125000
   77 1     1      0.00000      3.73612      1.37423      3.59277   #   C53   0.16970000   0.05725000   0.09225000
   78 1     1      0.00000      7.74303      2.91769      6.27420   #   C54   0.35170000   0.12155000   0.16110000
   79 1     1      0.00000      9.05188      1.39823     10.08312   #   C55   0.41115000   0.05825000   0.25890000
   80 1     1      0.00000      7.70670      0.77413      9.61577   #   C56   0.35005000   0.03225000   0.24690000
   81 1     3      0.00000      8.50478      7.47124     15.08963   #    N1   0.38630000   0.31125000   0.38745000
   82 1     3      0.00000      6.61801      6.91195     16.41379   #    N2   0.30060000   0.28795000   0.42145000
   83 1     3      0.00000     11.00360      6.11382     14.08093   #    N3   0.49980000   0.25470000   0.36155000
   84 1     3      0.00000      1.83503      5.43091     15.40704   #    N4   0.08335000   0.22625000   0.39560000
   85 1     3      0.00000      2.50322      4.53076      5.35313   #    N5   0.11370000   0.18875000   0.13745000
   86 1     3      0.00000      4.38999      5.09005      6.67729   #    N6   0.19940000   0.21205000   0.17145000
   87 1     3      0.00000      0.00440      5.88818      4.34443   #    N7   0.00020000   0.24530000   0.11155000
   88 1     3      0.00000      9.17297      6.57109      5.67054   #    N8   0.41665000   0.27375000   0.14560000
   89 1     3      0.00000      8.00722      1.47025     15.08963   #    N9   0.36370000   0.06125000   0.38745000
   90 1     3      0.00000      9.89399      0.91095     16.41379   #   N10   0.44940000   0.03795000   0.42145000
   91 1     3      0.00000      5.50840      0.11282     14.08093   #   N11   0.25020000   0.00470000   0.36155000
   92 1     3      0.00000      3.66933     11.43191     15.40704   #   N12   0.16666667   0.47625000   0.39560000
   93 1     3      0.00000      3.00078     10.53176      5.35313   #   N13   0.13630000   0.43875000   0.13745000
   94 1     3      0.00000      1.11401     11.09105      6.67729   #   N14   0.05060000   0.46205000   0.17145000
   95 1     3      0.00000      5.49960     11.88918      4.34443   #   N15   0.24980000   0.49530000   0.11155000
   96 1     3      0.00000      7.33867      0.57010      5.67054   #   N16   0.33333333   0.02375000   0.14560000
   97 1     5      0.00000     10.51594      9.15393     14.49570   #    O1   0.47765000   0.38135000   0.37220000
   98 1     5      0.00000     10.44769     10.06368     16.54816   #    O2   0.47455000   0.41925000   0.42490000
   99 1     5      0.00000      5.04497      7.30442     18.55582   #    O3   0.22915000   0.30430000   0.47645000
  100 1     4      0.00000      6.43087      8.88028     19.31332   #    O4   0.29210000   0.36995000   0.49590000
  101 1     5      0.00000      8.71173      5.58813     12.71976   #    O5   0.39570000   0.23280000   0.32660000
  102 1     5      0.00000      8.74696      3.46738     13.45390   #    O6   0.39730000   0.14445000   0.34545000
  103 1     5      0.00000      3.29690      3.43977     16.55789   #    O7   0.14975000   0.14330000   0.42515000
  104 1     5      0.00000      1.82513      1.90592     15.92697   #    O8   0.08290000   0.07940000   0.40895000
  105 1     5      0.00000      4.48906      4.57396     18.98033   #    O9   0.20390000   0.19055000   0.48735000
  106 1     5      0.00000      3.58861      4.17430      1.52084   #   O10   0.16300000   0.17390000   0.03905000
  107 1     5      0.00000      2.24563      5.87258     18.27346   #   O11   0.10200000   0.24465000   0.46920000
  108 1     5      0.00000      1.21748      5.05764      0.61729   #   O12   0.05530000   0.21070000   0.01585000
  109 1     5      0.00000      0.49206      2.84807      4.75920   #   O13   0.02235000   0.11865000   0.12220000
  110 1     5      0.00000      0.56031      1.93832      6.81166   #   O14   0.02545000   0.08075000   0.17490000
  111 1     5      0.00000      5.96303      4.69758      8.81932   #   O15   0.27085000   0.19570000   0.22645000
  112 1     4      0.00000      4.57713      3.12172      9.57682   #   O16   0.20790000   0.13005000   0.24590000
  113 1     5      0.00000      2.29627      6.41387      2.98326   #   O17   0.10430000   0.26720000   0.07660000
  114 1     5      0.00000      2.26104      8.53462      3.71740   #   O18   0.10270000   0.35555000   0.09545000
  115 1     5      0.00000      7.71110      8.56223      6.82139   #   O19   0.35025000   0.35670000   0.17515000
  116 1     5      0.00000      9.18287     10.09608      6.19047   #   O20   0.41710000   0.42060000   0.15895000
  117 1     5      0.00000      6.51894      7.42804      9.24383   #   O21   0.29610000   0.30945000   0.23735000
  118 1     5      0.00000      7.41939      7.82770     11.25734   #   O22   0.33700000   0.32610000   0.28905000
  119 1     5      0.00000      8.76237      6.12942      8.53696   #   O23   0.39800000   0.25535000   0.21920000
  120 1     5      0.00000      9.79052      6.94436     10.35379   #   O24   0.44470000   0.28930000   0.26585000
  121 1     5      0.00000      5.99606      3.15293     14.49570   #   O25   0.27235000   0.13135000   0.37220000
  122 1     5      0.00000      6.06431      4.06268     16.54816   #   O26   0.27545000   0.16925000   0.42490000
  123 1     5      0.00000      0.45903      1.30342     18.55582   #   O27   0.02085000   0.05430000   0.47645000
  124 1     4      0.00000     10.08113      2.87928     19.31332   #   O28   0.45790000   0.11995000   0.49590000
  125 1     5      0.00000      7.80027     11.58913     12.71976   #   O29   0.35430000   0.48280000   0.32660000
  126 1     5      0.00000      7.76504      9.46838     13.45390   #   O30   0.35270000   0.39445000   0.34545000
  127 1     5      0.00000      2.20710      9.44077     16.55789   #   O31   0.10025000   0.39330000   0.42515000
  128 1     5      0.00000      3.67887      7.90692     15.92697   #   O32   0.16710000   0.32940000   0.40895000
  129 1     5      0.00000      1.01494     10.57496     18.98033   #   O33   0.04610000   0.44055000   0.48735000
  130 1     5      0.00000      1.91539     10.17530      1.52084   #   O34   0.08700000   0.42390000   0.03905000
  131 1     5      0.00000      3.25837     11.87358     18.27346   #   O35   0.14800000   0.49465000   0.46920000
  132 1     5      0.00000      4.28652     11.05864      0.61729   #   O36   0.19470000   0.46070000   0.01585000
  133 1     5      0.00000      5.01194      8.84907      4.75920   #   O37   0.22765000   0.36865000   0.12220000
  134 1     5      0.00000      4.94369      7.93932      6.81166   #   O38   0.22455000   0.33075000   0.17490000
  135 1     5      0.00000     10.54897     10.69858      8.81932   #   O39   0.47915000   0.44570000   0.22645000
  136 1     4      0.00000      0.92687      9.12272      9.57682   #   O40   0.04210000   0.38005000   0.24590000
  137 1     5      0.00000      3.20773      0.41287      2.98326   #   O41   0.14570000   0.01720000   0.07660000
  138 1     5      0.00000      3.24296      2.53362      3.71740   #   O42   0.14730000   0.10555000   0.09545000
  139 1     5      0.00000      8.80090      2.56123      6.82139   #   O43   0.39975000   0.10670000   0.17515000
  140 1     5      0.00000      7.32913      4.09508      6.19047   #   O44   0.33290000   0.17060000   0.15895000
  141 1     5      0.00000      9.99306      1.42704      9.24383   #   O45   0.45390000   0.05945000   0.23735000
  142 1     5      0.00000      9.09261      1.82670     11.25734   #   O46   0.41300000   0.07610000   0.28905000
  143 1     5      0.00000      7.74963      0.12842      8.53696   #   O47   0.35200000   0.00535000   0.21920000
  144 1     5      0.00000      6.72148      0.94336     10.35379   #   O48   0.30530000   0.03930000   0.26585000
  145 1     6      0.00000      9.50871      7.90920     32.09890   #   Pr1   0.43190000   0.32949500   0.82419000
  146 1     6      0.00000      4.20814      5.72699     36.26807   #   Pr2   0.19114000   0.23858500   0.93124000
  147 1     6      0.00000      1.49929      4.09280     22.36240   #   Pr3   0.06810000   0.17050500   0.57419000
  148 1     6      0.00000      6.79986      6.27501     26.53157   #   Pr4   0.30886000   0.26141500   0.68124000
  149 1     6      0.00000      7.00329      1.90820     32.09890   #   Pr5   0.31810000   0.07949500   0.82419000
  150 1     6      0.00000      1.29586     11.72799     36.26807   #   Pr6   0.05886000   0.48858500   0.93124000
  151 1     6      0.00000      4.00471     10.09380     22.36240   #   Pr7   0.18190000   0.42050500   0.57419000
  152 1     6      0.00000      9.71214      0.27401     26.53157   #   Pr8   0.44114000   0.01141500   0.68124000
  153 1     2      0.00000      7.16731      6.09702     34.20627   #    H1   0.32555000   0.25400000   0.87830000
  154 1     2      0.00000      8.46185      9.12872     37.30832   #    H2   0.38435000   0.38030000   0.95795000
  155 1     2      0.00000      1.42664      7.22040     34.26664   #    H3   0.06480000   0.30080000   0.87985000
  156 1     2      0.00000     10.94195      2.93809     34.04854   #    H4   0.49700000   0.12240000   0.87425000
  157 1     2      0.00000      3.84069      5.90498     24.46977   #    H5   0.17445000   0.24600000   0.62830000
  158 1     2      0.00000      2.54615      2.87328     27.57182   #    H6   0.11565000   0.11970000   0.70795000
  159 1     2      0.00000      9.58136      4.78160     24.53014   #    H7   0.43520000   0.19920000   0.62985000
  160 1     2      0.00000      0.06605      9.06391     24.31204   #    H8   0.00300000   0.37760000   0.62425000
  161 1     2      0.00000      9.34469      0.09602     34.20627   #    H9   0.42445000   0.00400000   0.87830000
  162 1     2      0.00000      8.05015      3.12772     37.30832   #   H10   0.36565000   0.13030000   0.95795000
  163 1     2      0.00000      4.07736      1.21940     34.26664   #   H11   0.18520000   0.05080000   0.87985000
  164 1     2      0.00000      5.57005      8.93909     34.04854   #   H12   0.25300000   0.37240000   0.87425000
  165 1     2      0.00000      1.66331     11.90598     24.46977   #   H13   0.07555000   0.49600000   0.62830000
  166 1     2      0.00000      2.95785      8.87428     27.57182   #   H14   0.13435000   0.36970000   0.70795000
  167 1     2      0.00000      6.93064     10.78260     24.53014   #   H15   0.31480000   0.44920000   0.62985000
  168 1     2      0.00000      5.43795      3.06291     24.31204   #   H16   0.24700000   0.12760000   0.62425000
  169 1     1      0.00000      7.40398      6.75473     34.81967   #    C1   0.33630000   0.28140000   0.89405000
  170 1     1      0.00000      7.00439      7.80610     36.80008   #    C2   0.31815000   0.32520000   0.94490000
  171 1     1      0.00000      8.17344      8.54062     36.64819   #    C3   0.37125000   0.35580000   0.94100000
  172 1     1      0.00000      8.88786      8.36899     35.49149   #    C4   0.40370000   0.34865000   0.91130000
  173 1     1      0.00000     10.05911      9.25954     35.13513   #    C5   0.45690000   0.38575000   0.90215000
  174 1     1      0.00000      6.08963      8.03294     37.98403   #    C6   0.27660000   0.33465000   0.97530000
  175 1     1      0.00000      1.11951      6.34306     34.23743   #    C7   0.05085000   0.26425000   0.87910000
  176 1     1      0.00000      1.38811      4.15629     34.80215   #    C8   0.06305000   0.17315000   0.89360000
  177 1     1      0.00000      0.22897      3.81784     34.11475   #    C9   0.01040000   0.15905000   0.87595000
  178 1     1      0.00000     10.55447      4.86321     33.54224   #   C10   0.47940000   0.20260000   0.86125000
  179 1     1      0.00000      9.24012      4.62677     32.80227   #   C11   0.41970000   0.19275000   0.84225000
  180 1     1      0.00000      2.23903      3.08331     35.48370   #   C12   0.10170000   0.12845000   0.91110000
  181 1     1      0.00000      3.54788      4.60277     19.81962   #   C13   0.16115000   0.19175000   0.50890000
  182 1     1      0.00000      2.20270      5.22687     38.82527   #   C14   0.10005000   0.21775000   0.99690000
  183 1     1      0.00000      3.60402      5.24727     25.08317   #   C15   0.16370000   0.21860000   0.64405000
  184 1     1      0.00000      4.00361      4.19590     27.06358   #   C16   0.18185000   0.17480000   0.69490000
  185 1     1      0.00000      2.83456      3.46138     26.91169   #   C17   0.12875000   0.14420000   0.69100000
  186 1     1      0.00000      2.12014      3.63301     25.75499   #   C18   0.09630000   0.15135000   0.66130000
  187 1     1      0.00000      0.94889      2.74246     25.39863   #   C19   0.04310000   0.11425000   0.65215000
  188 1     1      0.00000      4.91837      3.96906     28.24753   #   C20   0.22340000   0.16535000   0.72530000
  189 1     1      0.00000      9.88849      5.65894     24.50093   #   C21   0.44915000   0.23575000   0.62910000
  190 1     1      0.00000      9.61989      7.84571     25.06565   #   C22   0.43695000   0.32685000   0.64360000
  191 1     1      0.00000     10.77903      8.18416     24.37825   #   C23   0.48960000   0.34095000   0.62595000
  192 1     1      0.00000      0.45353      7.13879     23.80574   #   C24   0.02060000   0.29740000   0.61125000
  193 1     1      0.00000      1.76788      7.37523     23.06577   #   C25   0.08030000   0.30725000   0.59225000
  194 1     1      0.00000      8.76897      8.91869     25.74720   #   C26   0.39830000   0.37155000   0.66110000
  195 1     1      0.00000      7.46012      7.39923     29.55612   #   C27   0.33885000   0.30825000   0.75890000
  196 1     1      0.00000      8.80530      6.77513     29.08877   #   C28   0.39995000   0.28225000   0.74690000
  197 1     1      0.00000      9.10802      0.75373     34.81967   #   C29   0.41370000   0.03140000   0.89405000
  198 1     1      0.00000      9.50761      1.80510     36.80008   #   C30   0.43185000   0.07520000   0.94490000
  199 1     1      0.00000      8.33856      2.53962     36.64819   #   C31   0.37875000   0.10580000   0.94100000
  200 1     1      0.00000      7.62414      2.36799     35.49149   #   C32   0.34630000   0.09865000   0.91130000
  201 1     1      0.00000      6.45289      3.25854     35.13513   #   C33   0.29310000   0.13575000   0.90215000
  202 1     1      0.00000     10.42237      2.03194     37.98403   #   C34   0.47340000   0.08465000   0.97530000
  203 1     1      0.00000      4.38449      0.34206     34.23743   #   C35   0.19915000   0.01425000   0.87910000
  204 1     1      0.00000      4.11589     10.15729     34.80215   #   C36   0.18695000   0.42315000   0.89360000
  205 1     1      0.00000      5.27503      9.81884     34.11475   #   C37   0.23960000   0.40905000   0.87595000
  206 1     1      0.00000      5.95753     10.86421     33.54224   #   C38   0.27060000   0.45260000   0.86125000
  207 1     1      0.00000      7.27188     10.62777     32.80227   #   C39   0.33030000   0.44275000   0.84225000
  208 1     1      0.00000      3.26497      9.08431     35.48370   #   C40   0.14830000   0.37845000   0.91110000
  209 1     1      0.00000      1.95612     10.60377     19.81962   #   C41   0.08885000   0.44175000   0.50890000
  210 1     1      0.00000      3.30130     11.22787     38.82527   #   C42   0.14995000   0.46775000   0.99690000
  211 1     1      0.00000      1.89998     11.24827     25.08317   #   C43   0.08630000   0.46860000   0.64405000
  212 1     1      0.00000      1.50039     10.19690     27.06358   #   C44   0.06815000   0.42480000   0.69490000
  213 1     1      0.00000      2.66944      9.46238     26.91169   #   C45   0.12125000   0.39420000   0.69100000
  214 1     1      0.00000      3.38386      9.63401     25.75499   #   C46   0.15370000   0.40135000   0.66130000
  215 1     1      0.00000      4.55511      8.74346     25.39863   #   C47   0.20690000   0.36425000   0.65215000
  216 1     1      0.00000      0.58563      9.97006     28.24753   #   C48   0.02660000   0.41535000   0.72530000
  217 1     1      0.00000      6.62351     11.65994     24.50093   #   C49   0.30085000   0.48575000   0.62910000
  218 1     1      0.00000      6.89211      1.84471     25.06565   #   C50   0.31305000   0.07685000   0.64360000
  219 1     1      0.00000      5.73297      2.18316     24.37825   #   C51   0.26040000   0.09095000   0.62595000
  220 1     1      0.00000      5.05047      1.13779     23.80574   #   C52   0.22940000   0.04740000   0.61125000
  221 1     1      0.00000      3.73612      1.37423     23.06577   #   C53   0.16970000   0.05725000   0.59225000
  222 1     1      0.00000      7.74303      2.91769     25.74720   #   C54   0.35170000   0.12155000   0.66110000
  223 1     1      0.00000      9.05188      1.39823     29.55612   #   C55   0.41115000   0.05825000   0.75890000
  224 1     1      0.00000      7.70670      0.77413     29.08877   #   C56   0.35005000   0.03225000   0.74690000
  225 1     3      0.00000      8.50478      7.47124     34.56263   #    N1   0.38630000   0.31125000   0.88745000
  226 1     3      0.00000      6.61801      6.91195     35.88679   #    N2   0.30060000   0.28795000   0.92145000
  227 1     3      0.00000     11.00360      6.11382     33.55393   #    N3   0.49980000   0.25470000   0.86155000
  228 1     3      0.00000      1.83503      5.43091     34.88004   #    N4   0.08335000   0.22625000   0.89560000
  229 1     3      0.00000      2.50322      4.53076     24.82613   #    N5   0.11370000   0.18875000   0.63745000