Created by Ryther's code on 2025-08-05 17:25:19.959339, modified by xyan11@uic.edu. 

    760 atoms
    856 bonds
    1496 angles
    1880 dihedrals
    344 impropers

    9 atom types
    18 bond types
    39 angle types
    9 dihedral types
    2 improper types

0.00000000 42.01339374 xlo xhi
0.00000000 30.894281 ylo yhi
0.00000000 29.76478986 zlo zhi
-0.3452806 0.12758045 2.32072749 xy xz yz 

Masses 

    1    12.0107  #   C
    2    12.0107  #   C
    3    1.00794  #   H
    4    14.0067  #   N
    5    14.0067  #   N
    6    15.9994  #   O
    7    15.9994  #   O
    8    15.9994  #   O
    9      65.38  #  Zn

Pair Coeffs

    1       0.10500      3.43085  #  C_3 C_3
    2       0.10500      3.43085  #  C_R C_R
    3       0.04400      2.57113  #  H_ H_
    4       0.06900      3.26069  #  N_2 N_2
    5       0.06900      3.26069  #  N_3 N_3
    6       0.06000      3.11815  #  O_1 O_1
    7       0.06000      3.11815  #  O_2_M O_2_M
    8       0.06000      3.11815  #  O_3_M O_3_M
    9       0.06000      2.58361  #  Zn6f3 Zn6f3

Bond Coeffs

    1      54.94924      2.40433  #  O_2_M Zn6f3 bond order=0.5
    2      55.07699      2.48452  #  N_2 Zn6f3 bond order=0.5
    3      24.34887      2.13340  #  H_ Zn6f3 bond order=0.5
    4      53.24274      2.42975  #  O_3_M Zn6f3 bond order=0.5
    5     357.44038      1.08142  #  C_R H_ bond order=1.0
    6     331.06939      1.10940  #  C_3 H_ bond order=1.0
    7     527.90376      1.04442  #  H_ N_3 bond order=1.0
    8     559.99521      0.99025  #  H_ O_3_M bond order=1.0
    9     462.65505      1.37926  #  C_R C_R bond order=1.5
    10    931.53598      1.20133  #  C_R N_2 bond order=3.0
    11    391.66951      1.45800  #  C_R C_R bond order=1.0
    12    706.67500      1.27367  #  C_R O_1 bond order=1.5
    13    560.26893      1.42319  #  C_R N_3 bond order=1.0
    14    369.94394      1.48600  #  C_3 C_R bond order=1.0
    15    349.79590      1.51400  #  C_3 C_3 bond order=1.0
    16    528.59298      1.45107  #  C_3 N_3 bond order=1.0
    17    678.02790      1.29140  #  C_R O_3_M bond order=1.5
    18    714.55744      1.26901  #  C_R O_2_M bond order=1.5

Angle Coeffs

    1  cosine/periodic         67.02484            1            4  #  O_2_M Zn6f3 O_2_M
    2  cosine/periodic         70.47472            1            4  #  N_2 Zn6f3 O_2_M
    3  cosine/periodic         25.39208            1            4  #  H_ Zn6f3 N_2
    4  cosine/periodic         23.92551            1            4  #  H_ Zn6f3 O_3_M
    5  cosine/periodic         24.38538            1            4  #  H_ Zn6f3 O_2_M
    6  cosine/periodic         69.42201            1            4  #  N_2 Zn6f3 O_3_M
    7  cosine/periodic         65.96675            1            4  #  O_2_M Zn6f3 O_3_M
    8  cosine/periodic         25.05849            1            1  #  O_3_M H_ Zn6f3
    9  cosine/periodic        179.74893           -1            3  #  C_R C_R N_2
    10 cosine/periodic        111.29751           -1            3  #  C_R C_R C_R
    11 cosine/periodic         57.28902           -1            3  #  C_R C_R H_
    12 cosine/periodic        102.18328           -1            3  #  C_R C_R C_R
    13 cosine/periodic        137.04263           -1            3  #  C_R C_R O_1
    14 cosine/periodic        129.92907           -1            3  #  C_R C_R N_3
    15 cosine/periodic        189.84281           -1            3  #  N_3 C_R O_1
    16 cosine/periodic        141.17366           -1            3  #  C_R C_R N_3
    17 cosine/periodic         79.41805           -1            3  #  H_ C_R O_1
    18 cosine/periodic         71.90654           -1            3  #  H_ C_R N_3
    19 cosine/periodic         94.22104           -1            3  #  C_R C_R C_R
    20 cosine/periodic         99.13715           -1            3  #  C_3 C_R C_R
    21 fourier                121.77380      0.34375      0.37500      0.28125  #  C_R C_3 H_
    22 fourier                117.31542      0.34375      0.37500      0.28125  #  C_3 C_3 H_
    23 fourier                220.22341      0.34375      0.37500      0.28125  #  C_3 C_3 C_R
    24 fourier                226.54358      0.34375      0.37500      0.28125  #  C_R C_3 C_R
    25 fourier                 75.49653      0.34375      0.37500      0.28125  #  H_ C_3 H_
    26 fourier                169.76232      0.34375      0.37500      0.28125  #  H_ C_3 N_3
    27 fourier                303.26422      0.34375      0.37500      0.28125  #  C_3 C_3 N_3
    28 cosine/periodic        134.57449           -1            3  #  C_R C_R O_3_M
    29 cosine/periodic        137.71425           -1            3  #  C_R C_R O_2_M
    30 cosine/periodic        201.38050           -1            3  #  O_2_M C_R O_3_M
    31 cosine/periodic        206.77843           -1            3  #  O_2_M C_R O_2_M
    32 fourier                 48.02888      0.36401      0.41847      0.28800  #  C_R N_2 Zn6f3
    33 fourier                276.50199      0.31751      0.31322      0.27250  #  C_R N_3 C_R
    34 fourier                 97.01717      0.31751      0.31322      0.27250  #  H_ N_3 H_
    35 fourier                144.69505      0.31751      0.31322      0.27250  #  C_3 N_3 H_
    36 cosine/periodic         21.77718           -1            3  #  C_R O_2_M Zn6f3
    37 fourier                 22.33312      0.30023      0.26733      0.26675  #  H_ O_3_M Zn6f3
    38 fourier                 55.81766      0.30023      0.26733      0.26675  #  C_R O_3_M Zn6f3
    39 fourier                203.65891      0.30023      0.26733      0.26675  #  C_R O_3_M H_

Dihedral Coeffs

    1       6.73711           -1            2  #  X C_R C_R X bond order=1.5
    2      27.96100           -1            2  #  X C_R N_2 X bond order=3.0
    3       1.25000           -1            2  #  X C_R C_R X bond order=1.0
    4       0.25000           -1            6  #  X C_R N_3 X bond order=1.0
    5       0.16667           -1            6  #  X C_3 C_R X bond order=1.0
    6       0.11772            1            3  #  X C_3 C_3 X bond order=1.0
    7       0.08138            1            3  #  X C_3 N_3 X bond order=1.0
    8       0.31957           -1            2  #  X C_R O_3_M X bond order=1.5
    9       6.73711           -1            2  #  X C_R O_2_M X bond order=1.5

Improper Coeffs

    1       2.00000      1.00000     -1.00000      0.00000            1  #  C_R X X X O_2 present=False
    2      16.66667      1.00000     -1.00000      0.00000            1  #  C_R X X X O_2 present=True

Atoms # a, b, c, alpha, beta, gamma: 42.0133937424, 30.8962104069, 29.8553976450, 85.5447957695, 89.7551583971, 90.6403223137 $$$atoms$$$

    1 1     9      0.00000     14.42870     14.81912      0.09879   #   Zn1   0.34736104   0.47942257   0.00331914
    2 1     9      0.00000     17.35888     14.85164      0.08359   #   Zn2   0.41711539   0.48051367   0.00280848
    3 1     3      0.00000     10.28629     13.47818     13.86217   #    H1   0.24671732   0.40128347   0.46572368
    4 1     3      0.00000      7.92067     13.07967     13.33420   #    H2   0.19036964   0.38971656   0.44798569
    5 1     3      0.00000      7.17064      1.70231     14.44753   #    H3   0.16935436   0.01863936   0.48538987
    6 1     3      0.00000      9.47572      0.93612      0.07070   #    H4   0.22578079   0.03012234   0.00237520
    7 1     3      0.00000      3.97947      2.27215     14.61897   #    H5   0.09352883   0.03665149   0.49114961
    8 1     3      0.00000      1.54755      1.16948      0.42381   #    H6   0.03709386   0.03678469   0.01423854
    9 1     3      0.00000      0.70332     14.17189     13.05939   #    H7   0.01890707   0.42576371   0.43875300
   10 1     3      0.00000      3.06745     14.12320     12.36590   #    H8   0.07525018   0.42593789   0.41545386
   11 1     3      0.00000      6.65783      1.37167     11.74881   #    H9   0.15739190   0.01474808   0.39472169
   12 1     3      0.00000     17.92029     11.06980     14.82999   #   H10   0.42766167   0.32088523   0.49823920
   13 1     3      0.00000     17.03585      7.75034      0.73636   #   H11   0.40745749   0.24900808   0.02473945
   14 1     3      0.00000     13.06845      9.40019      1.14219   #   H12   0.31341477   0.30138687   0.03837380
   15 1     3      0.00000     13.89108     11.56894      0.37205   #   H13   0.33366651   0.37352979   0.01249965
   16 1     3      0.00000     15.50986      7.63948     13.85428   #   H14   0.36949611   0.21231358   0.46545859
   17 1     3      0.00000     16.39940      5.49950     13.08843   #   H15   0.39019366   0.14497850   0.43972875
   18 1     3      0.00000     15.55669      2.62661      2.09438   #   H16   0.37072088   0.07973362   0.07036429
   19 1     3      0.00000     14.68539      4.77643      2.86408   #   H17   0.35045967   0.14737762   0.09622370
   20 1     3      0.00000     17.49533     14.25951     10.57853   #   H18   0.41891719   0.43486075   0.35540424
   21 1     3      0.00000     16.32249     13.29678      8.67239   #   H19   0.39097929   0.40850936   0.29136416
   22 1     3      0.00000     13.02897     16.01277      9.32103   #   H20   0.31323006   0.49478485   0.31315627
   23 1     3      0.00000     14.37586      1.53020     11.23129   #   H21   0.34120147   0.02118536   0.37733489
   24 1     3      0.00000     12.82603     14.45559      7.61358   #   H22   0.30819502   0.44869033   0.25579152
   25 1     3      0.00000     14.52155     11.91687      7.94757   #   H23   0.34783527   0.36567296   0.26701249
   26 1     3      0.00000     12.97627     12.31727      8.75261   #   H24   0.31106238   0.37660179   0.29405934
   27 1     3      0.00000     12.73746     10.91972      6.81513   #   H25   0.30524444   0.33625484   0.22896626
   28 1     3      0.00000     11.87441     12.35119      6.69344   #   H26   0.28509790   0.38289635   0.22487789
   29 1     3      0.00000     13.56742      0.70971      6.06407   #   H27   0.32237522   0.00766808   0.20373284
   30 1     3      0.00000     14.72117      1.37874      4.01848   #   H28   0.35026570   0.03448599   0.13500773
   31 1     3      0.00000     17.10136     13.35722      4.32762   #   H29   0.41006745   0.42143075   0.14539403
   32 1     3      0.00000     15.95359     12.68950      6.36250   #   H30   0.38232074   0.39468231   0.21375935
   33 1     3      0.00000     18.15141     15.03405      1.42910   #   H31   0.43586252   0.48302213   0.04801304
   34 1     2      0.00000     11.37766     15.77153     14.74378   #    C1   0.27319573   0.47329077   0.49534299
   35 1     2      0.00000      9.99064     15.54049     14.43570   #    C2   0.24015836   0.46658980   0.48499249
   36 1     2      0.00000      9.57194     14.28372     13.98354   #    C3   0.22991371   0.42705109   0.46980155
   37 1     2      0.00000      8.22455     14.05821     13.68518   #    C4   0.19781995   0.42050480   0.45977755
   38 1     2      0.00000      7.28157     15.09139     13.82527   #    C5   0.17563282   0.45359375   0.46448408
   39 1     2      0.00000      7.70809     16.34632     14.29539   #    C6   0.18606090   0.49302747   0.48027855
   40 1     2      0.00000      9.05563     16.57002     14.59374   #    C7   0.21815787   0.49951516   0.49030217
   41 1     2      0.00000      5.85215     14.84058     13.52410   #    C8   0.14158016   0.44623543   0.45436577
   42 1     2      0.00000      3.60531     15.91200     13.45432   #    C9   0.08839459   0.48109163   0.45202141
   43 1     2      0.00000      3.30472      1.49706     14.27766   #   C10   0.07730421   0.01242447   0.47968278
   44 1     2      0.00000      1.96222      1.52819     14.66743   #   C11   0.04531054   0.01244834   0.49277787
   45 1     2      0.00000      0.90918     15.97613     14.23298   #   C12   0.02414283   0.48120250   0.47818167
   46 1     2      0.00000     20.53367     16.00838     14.63356   #   C13   0.49120299   0.48123525   0.49163998
   47 1     2      0.00000      1.37653     14.94709     13.40534   #   C14   0.03509448   0.44998262   0.45037562
   48 1     2      0.00000      2.71920     14.91587     13.01581   #   C15   0.06709231   0.44995504   0.43728875
   49 1     2      0.00000      5.64270      1.42531     12.12049   #   C16   0.13319840   0.01554623   0.40720912
   50 1     2      0.00000     15.93739     10.90770      0.09080   #   C17   0.38223114   0.35283607   0.00305044
   51 1     2      0.00000     16.80794      9.81059      0.19886   #   C18   0.40264691   0.31705162   0.00668120
   52 1     2      0.00000     16.33634      8.57124      0.64083   #   C19   0.39103779   0.27582036   0.02152990
   53 1     2      0.00000     14.98159      8.40038      0.97367   #   C20   0.35870594   0.26945008   0.03271211
   54 1     2      0.00000     14.11505      9.50159      0.88221   #   C21   0.33838474   0.30532543   0.02963942
   55 1     2      0.00000     14.58599     10.74121      0.43993   #   C22   0.34997818   0.34656591   0.01478024
   56 1     2      0.00000     14.47315      7.09497      1.46113   #   C23   0.34619694   0.22596572   0.04908929
   57 1     2      0.00000     15.02265      5.80138      0.98689   #   C24   0.35899027   0.18529116   0.03315621
   58 1     2      0.00000     15.54854      6.81120     14.55053   #   C25   0.37011105   0.18374619   0.48885056
   59 1     2      0.00000     16.04846      5.58270     14.10936   #   C26   0.38173727   0.14509523   0.47402854
   60 1     2      0.00000     16.02296      3.31593      0.09160   #   C27   0.38224834   0.10710043   0.00307736
   61 1     2      0.00000     15.54501      3.46198      1.40541   #   C28   0.37074960   0.10851207   0.04721727
   62 1     2      0.00000     15.04484      4.69074      1.84590   #   C29   0.35911755   0.14717334   0.06201615
   63 1     2      0.00000     15.94076     15.69191     11.05747   #   C30   0.38223775   0.48001669   0.37149483
   64 1     2      0.00000     16.51955     14.64884     10.31650   #   C31   0.39582747   0.44812433   0.34660064
   65 1     2      0.00000     15.84619     14.09521      9.22415   #   C32   0.37978708   0.43296093   0.30990124
   66 1     2      0.00000     14.57540     14.56964      8.85084   #   C33   0.34971199   0.44925947   0.29735924
   67 1     2      0.00000     14.00103     15.61822      9.58972   #   C34   0.33622890   0.48133574   0.32218351
   68 1     2      0.00000     14.67447     16.17175     10.68211   #   C35   0.35227141   0.49649583   0.35888404
   69 1     1      0.00000     13.83865     13.99280      7.65567   #   C36   0.33216911   0.43360437   0.25720555
   70 1     1      0.00000     13.57321     12.48099      7.82680   #   C37   0.32542801   0.38423762   0.26295513
   71 1     2      0.00000     14.55738     14.35515      6.36429   #   C38   0.34953129   0.44859212   0.21381949
   72 1     2      0.00000     14.19442     15.53153      5.68623   #   C39   0.34128812   0.48838098   0.19103873
   73 1     2      0.00000     15.03066      0.46935      4.51835   #   C40   0.35732902   0.00378909   0.15180187
   74 1     2      0.00000     15.91074     15.13922      4.00732   #   C41   0.38224172   0.47991980   0.13463299
   75 1     2      0.00000     16.28857     13.97301      4.69180   #   C42   0.39084055   0.44044369   0.15762931
   76 1     2      0.00000     15.62512     13.58785      5.86016   #   C43   0.37480332   0.42502802   0.19688225
   77 1     2      0.00000     15.90492     14.97108      2.52685   #   C44   0.38224015   0.47821340   0.08489406
   78 1     2      0.00000     15.94649     15.86007     12.53793   #   C45   0.38223704   0.48172339   0.42123360
   79 1     2      0.00000     16.03912      1.82698      0.03830   #   C46   0.38224342   0.05903968   0.00128690
   80 1     2      0.00000     15.92113     12.39665      0.14409   #   C47   0.38223375   0.40089659   0.00484079
   81 1     4      0.00000     12.42894     14.79692      0.10906   #    N1   0.29975569   0.47867824   0.00366403
   82 1     5      0.00000      4.98454     15.89066     13.05239   #    N2   0.12126655   0.48141534   0.43851768
   83 1     4      0.00000     19.35864     14.87394      0.07322   #    N3   0.46472075   0.48126154   0.00245993
   84 1     5      0.00000     12.84092     11.95131      6.67889   #    N4   0.30799794   0.36998950   0.22438905
   85 1     6      0.00000      5.38470     13.68334     13.70775   #    O1   0.13012354   0.40831390   0.46053575
   86 1     6      0.00000      4.89414      2.35222     11.71004   #    O2   0.11567828   0.04658481   0.39341932
   87 1     6      0.00000     13.53967      7.08454      2.30970   #    O3   0.32387126   0.22348648   0.07759855
   88 1     7      0.00000     17.06040     15.92879     13.02902   #    O4   0.40870822   0.48270836   0.43773260
   89 1     8      0.00000     17.01495     14.92703      2.02422   #    O5   0.40871091   0.47805623   0.06800736
   90 1     7      0.00000     17.15653      1.33962      0.01470   #    O6   0.40871320   0.04332447   0.00049399
   91 1     7      0.00000     17.02766     12.90869      0.15614   #    O7   0.40870591   0.41744012   0.00524594
   92 1     7      0.00000     14.93257      1.31493      0.02624   #    O8   0.35577050   0.04249611   0.00088169
   93 1     7      0.00000     14.79098     14.90235      2.03576   #    O9   0.35576821   0.47722839   0.06839503
   94 1     7      0.00000     14.83643     15.90411     13.04054   #   O10   0.35576552   0.48188051   0.43811974
   95 1     7      0.00000     14.80369     12.88401      0.16767   #   O11   0.35576321   0.41661227   0.00563311
   96 1     9      0.00000     14.49249     15.97948     14.98119   #   Zn1   0.34736104   0.47942257   0.50331914
   97 1     9      0.00000     17.42267     16.01201     14.96599   #   Zn2   0.41711539   0.48051367   0.50280848
   98 1     3      0.00000     10.35008     14.63855     28.74456   #    H1   0.24671732   0.40128347   0.96572368
   99 1     3      0.00000      7.98446     14.24003     28.21659   #    H2   0.19036964   0.38971656   0.94798569
  100 1     3      0.00000      7.23443      2.86267     29.32992   #    H3   0.16935436   0.01863936   0.98538987
  101 1     3      0.00000      9.53951      2.09648     14.95309   #    H4   0.22578079   0.03012234   0.50237520
  102 1     3      0.00000      4.04326      3.43251     29.50136   #    H5   0.09352883   0.03665149   0.99114961
  103 1     3      0.00000      1.61134      2.32984     15.30620   #    H6   0.03709386   0.03678469   0.51423854
  104 1     3      0.00000      0.76711     15.33225     27.94179   #    H7   0.01890707   0.42576371   0.93875300
  105 1     3      0.00000      3.13124     15.28356     27.24829   #    H8   0.07525018   0.42593789   0.91545386
  106 1     3      0.00000      6.72162      2.53204     26.63120   #    H9   0.15739190   0.01474808   0.89472169
  107 1     3      0.00000     17.98408     12.23016     29.71238   #   H10   0.42766167   0.32088523   0.99823920
  108 1     3      0.00000     17.09964      8.91070     15.61876   #   H11   0.40745749   0.24900808   0.52473945
  109 1     3      0.00000     13.13224     10.56055     16.02458   #   H12   0.31341477   0.30138687   0.53837380
  110 1     3      0.00000     13.95487     12.72931     15.25444   #   H13   0.33366651   0.37352979   0.51249965
  111 1     3      0.00000     15.57365      8.79984     28.73667   #   H14   0.36949611   0.21231358   0.96545859
  112 1     3      0.00000     16.46319      6.65986     27.97083   #   H15   0.39019366   0.14497850   0.93972875
  113 1     3      0.00000     15.62048      3.78697     16.97677   #   H16   0.37072088   0.07973362   0.57036429
  114 1     3      0.00000     14.74918      5.93680     17.74647   #   H17   0.35045967   0.14737762   0.59622370
  115 1     3      0.00000     17.55912     15.41987     25.46093   #   H18   0.41891719   0.43486075   0.85540424
  116 1     3      0.00000     16.38628     14.45714     23.55479   #   H19   0.39097929   0.40850936   0.79136416
  117 1     3      0.00000     13.09276     17.17314     24.20343   #   H20   0.31323006   0.49478485   0.81315627
  118 1     3      0.00000     14.43965      2.69056     26.11369   #   H21   0.34120147   0.02118536   0.87733489
  119 1     3      0.00000     12.88982     15.61595     22.49598   #   H22   0.30819502   0.44869033   0.75579152
  120 1     3      0.00000     14.58534     13.07723     22.82997   #   H23   0.34783527   0.36567296   0.76701249
  121 1     3      0.00000     13.04006     13.47764     23.63501   #   H24   0.31106238   0.37660179   0.79405934
  122 1     3      0.00000     12.80125     12.08008     21.69753   #   H25   0.30524444   0.33625484   0.72896626
  123 1     3      0.00000     11.93820     13.51155     21.57584   #   H26   0.28509790   0.38289635   0.72487789
  124 1     3      0.00000     13.63121      1.87007     20.94646   #   H27   0.32237522   0.00766808   0.70373284
  125 1     3      0.00000     14.78496      2.53910     18.90087   #   H28   0.35026570   0.03448599   0.63500773
  126 1     3      0.00000     17.16515     14.51758     19.21002   #   H29   0.41006745   0.42143075   0.64539403
  127 1     3      0.00000     16.01738     13.84987     21.24490   #   H30   0.38232074   0.39468231   0.71375935
  128 1     3      0.00000     18.21520     16.19441     16.31149   #   H31   0.43586252   0.48302213   0.54801304
  129 1     2      0.00000     11.44145     16.93190     29.62617   #    C1   0.27319573   0.47329077   0.99534299
  130 1     2      0.00000     10.05443     16.70086     29.31809   #    C2   0.24015836   0.46658980   0.98499249
  131 1     2      0.00000      9.63573     15.44408     28.86594   #    C3   0.22991371   0.42705109   0.96980155
  132 1     2      0.00000      8.28834     15.21858     28.56758   #    C4   0.19781995   0.42050480   0.95977755
  133 1     2      0.00000      7.34536     16.25176     28.70767   #    C5   0.17563282   0.45359375   0.96448408
  134 1     2      0.00000      7.77188     17.50669     29.17779   #    C6   0.18606090   0.49302747   0.98027855
  135 1     2      0.00000      9.11942     17.73038     29.47614   #    C7   0.21815787   0.49951516   0.99030217
  136 1     2      0.00000      5.91594     16.00095     28.40650   #    C8   0.14158016   0.44623543   0.95436577
  137 1     2      0.00000      3.66910     17.07236     28.33672   #    C9   0.08839459   0.48109163   0.95202141
  138 1     2      0.00000      3.36851      2.65742     29.16005   #   C10   0.07730421   0.01242447   0.97968278
  139 1     2      0.00000      2.02601      2.68855     29.54982   #   C11   0.04531054   0.01244834   0.99277787
  140 1     2      0.00000      0.97297     17.13650     29.11537   #   C12   0.02414283   0.48120250   0.97818167
  141 1     2      0.00000     20.59746     17.16874     29.51596   #   C13   0.49120299   0.48123525   0.99163998
  142 1     2      0.00000      1.44032     16.10745     28.28773   #   C14   0.03509448   0.44998262   0.95037562
  143 1     2      0.00000      2.78299     16.07623     27.89820   #   C15   0.06709231   0.44995504   0.93728875
  144 1     2      0.00000      5.70649      2.58567     27.00289   #   C16   0.13319840   0.01554623   0.90720912
  145 1     2      0.00000     16.00118     12.06806     14.97319   #   C17   0.38223114   0.35283607   0.50305044
  146 1     2      0.00000     16.87173     10.97095     15.08126   #   C18   0.40264691   0.31705162   0.50668120
  147 1     2      0.00000     16.40013      9.73160     15.52323   #   C19   0.39103779   0.27582036   0.52152990
  148 1     2      0.00000     15.04538      9.56075     15.85606   #   C20   0.35870594   0.26945008   0.53271211
  149 1     2      0.00000     14.17884     10.66196     15.76461   #   C21   0.33838474   0.30532543   0.52963942
  150 1     2      0.00000     14.64978     11.90157     15.32233   #   C22   0.34997818   0.34656591   0.51478024
  151 1     2      0.00000     14.53694      8.25534     16.34353   #   C23   0.34619694   0.22596572   0.54908929
  152 1     2      0.00000     15.08644      6.96175     15.86928   #   C24   0.35899027   0.18529116   0.53315621
  153 1     2      0.00000     15.61234      7.97156     29.43293   #   C25   0.37011105   0.18374619   0.98885056
  154 1     2      0.00000     16.11225      6.74307     28.99175   #   C26   0.38173727   0.14509523   0.97402854
  155 1     2      0.00000     16.08675      4.47630     14.97399   #   C27   0.38224834   0.10710043   0.50307736
  156 1     2      0.00000     15.60880      4.62234     16.28781   #   C28   0.37074960   0.10851207   0.54721727
  157 1     2      0.00000     15.10863      5.85110     16.72829   #   C29   0.35911755   0.14717334   0.56201615
  158 1     2      0.00000     16.00455     16.85227     25.93986   #   C30   0.38223775   0.48001669   0.87149483
  159 1     2      0.00000     16.58334     15.80921     25.19889   #   C31   0.39582747   0.44812433   0.84660064
  160 1     2      0.00000     15.90998     15.25558     24.10654   #   C32   0.37978708   0.43296093   0.80990124
  161 1     2      0.00000     14.63919     15.73000     23.73323   #   C33   0.34971199   0.44925947   0.79735924
  162 1     2      0.00000     14.06482     16.77859     24.47212   #   C34   0.33622890   0.48133574   0.82218351
  163 1     2      0.00000     14.73826     17.33212     25.56450   #   C35   0.35227141   0.49649583   0.85888404
  164 1     1      0.00000     13.90244     15.15316     22.53806   #   C36   0.33216911   0.43360437   0.75720555
  165 1     1      0.00000     13.63700     13.64136     22.70920   #   C37   0.32542801   0.38423762   0.76295513
  166 1     2      0.00000     14.62117     15.51551     21.24669   #   C38   0.34953129   0.44859212   0.71381949
  167 1     2      0.00000     14.25821     16.69189     20.56862   #   C39   0.34128812   0.48838098   0.69103873
  168 1     2      0.00000     15.09445      1.62972     19.40075   #   C40   0.35732902   0.00378909   0.65180187
  169 1     2      0.00000     15.97453     16.29959     18.88972   #   C41   0.38224172   0.47991980   0.63463299
  170 1     2      0.00000     16.35236     15.13337     19.57420   #   C42   0.39084055   0.44044369   0.65762931
  171 1     2      0.00000     15.68891     14.74821     20.74255   #   C43   0.37480332   0.42502802   0.69688225
  172 1     2      0.00000     15.96871     16.13144     17.40925   #   C44   0.38224015   0.47821340   0.58489406
  173 1     2      0.00000     16.01028     17.02043     27.42032   #   C45   0.38223704   0.48172339   0.92123360
  174 1     2      0.00000     16.10291      2.98734     14.92070   #   C46   0.38224342   0.05903968   0.50128690
  175 1     2      0.00000     15.98492     13.55701     15.02648   #   C47   0.38223375   0.40089659   0.50484079
  176 1     4      0.00000     12.49273     15.95729     14.99145   #    N1   0.29975569   0.47867824   0.50366403
  177 1     5      0.00000      5.04833     17.05102     27.93478   #    N2   0.12126655   0.48141534   0.93851768
  178 1     4      0.00000     19.42243     16.03430     14.95561   #    N3   0.46472075   0.48126154   0.50245993
  179 1     5      0.00000     12.90471     13.11167     21.56129   #    N4   0.30799794   0.36998950   0.72438905
  180 1     6      0.00000      5.44849     14.84371     28.59014   #    O1   0.13012354   0.40831390   0.96053575
  181 1     6      0.00000      4.95793      3.51259     26.59244   #    O2   0.11567828   0.04658481   0.89341932
  182 1     6      0.00000     13.60346      8.24490     17.19210   #    O3   0.32387126   0.22348648   0.57759855
  183 1     7      0.00000     17.12419     17.08915     27.91141   #    O4   0.40870822   0.48270836   0.93773260
  184 1     8      0.00000     17.07874     16.08739     16.90662   #    O5   0.40871091   0.47805623   0.56800736
  185 1     7      0.00000     17.22032      2.49999     14.89710   #    O6   0.40871320   0.04332447   0.50049399
  186 1     7      0.00000     17.09145     14.06905     15.03854   #    O7   0.40870591   0.41744012   0.50524594
  187 1     7      0.00000     14.99636      2.47530     14.90864   #    O8   0.35577050   0.04249611   0.50088169
  188 1     7      0.00000     14.85477     16.06272     16.91816   #    O9   0.35576821   0.47722839   0.56839503
  189 1     7      0.00000     14.90022     17.06447     27.92294   #   O10   0.35576552   0.48188051   0.93811974
  190 1     7      0.00000     14.86748     14.04437     15.05006   #   O11   0.35576321   0.41661227   0.50563311
  191 1     9      0.00000     14.25606     30.26626      0.09879   #   Zn1   0.34736104   0.97942257   0.00331914
  192 1     9      0.00000     17.18624     30.29878      0.08359   #   Zn2   0.41711539   0.98051367   0.00280848
  193 1     3      0.00000     10.11365     28.92532     13.86217   #    H1   0.24671732   0.90128347   0.46572368
  194 1     3      0.00000      7.74803     28.52681     13.33420   #    H2   0.19036964   0.88971656   0.44798569
  195 1     3      0.00000      6.99800     17.14945     14.44753   #    H3   0.16935436   0.51863936   0.48538987
  196 1     3      0.00000      9.30308     16.38326      0.07070   #    H4   0.22578079   0.53012234   0.00237520
  197 1     3      0.00000      3.80683     17.71929     14.61897   #    H5   0.09352883   0.53665149   0.49114961
  198 1     3      0.00000      1.37491     16.61662      0.42381   #    H6   0.03709386   0.53678469   0.01423854
  199 1     3      0.00000      0.53068     29.61903     13.05939   #    H7   0.01890707   0.92576371   0.43875300
  200 1     3      0.00000      2.89481     29.57034     12.36590   #    H8   0.07525018   0.92593789   0.41545386
  201 1     3      0.00000      6.48519     16.81881     11.74881   #    H9   0.15739190   0.51474808   0.39472169
  202 1     3      0.00000     17.74765     26.51694     14.82999   #   H10   0.42766167   0.82088523   0.49823920