ITEM: TIMESTEP
0
ITEM: NUMBER OF ATOMS
760
ITEM: BOX BOUNDS xy xz yz pp pp pp
-3.4528059999999999e-01 4.2140974190000001e+01 -3.4528059999999999e-01
0.0000000000000000e+00 3.3215008490000002e+01 1.2758045000000001e-01
0.0000000000000000e+00 2.9764789860000000e+01 2.3207274899999999e+00
ITEM: ATOMS id type element x y z q
106 3 H 5.52951 1.11993 0.931865 0
144 2 C 4.94498 0.439059 1.54134 0
181 6 O 4.50437 0.850212 2.66555 0
27 3 H 13.236 7.35777 7.05913 0
264 2 C 16.2684 1.51769 3.82244 0
267 2 C 16.1587 0.596183 2.66778 0
217 3 H 15.4223 7.06814 5.76777 0
222 3 H 14.3225 3.12628 6.09611 0
261 2 C 16.4855 3.30726 6.00494 0
265 2 C 15.1223 1.93861 4.51752 0
266 2 C 15.2289 2.82095 5.59648 0
274 5 N 16.0839 6.26183 5.83997 0
221 3 H 14.1397 1.58861 4.22665 0
215 3 H 14.681 5.24526 7.03406 0
260 1 C 15.7561 5.52073 7.05596 0
283 7 O 15.0018 0.252099 2.24641 0
259 1 C 16.6404 4.26278 7.18012 0
218 3 H 17.0385 6.67388 5.95425 0
73 2 C 17.5231 2.00248 4.22818 0
262 2 C 17.6292 2.88731 5.30345 0
214 3 H 17.6884 4.63989 7.17107 0
29 3 H 18.6119 3.24021 5.59095 0
30 3 H 18.4266 1.70266 3.712 0
668 3 H 30.6798 0.228273 2.18398 0
669 3 H 28.2401 0.180067 2.26831 0
398 3 H 37.9557 2.29146 3.37145 0
399 3 H 37.8911 4.42219 4.58884 0
436 2 C 36.3466 6.58961 4.05409 0
437 2 C 36.3924 5.31454 3.31018 0
440 2 C 36.4484 2.86162 1.92464 0
441 2 C 37.2848 3.07183 3.03342 0
442 2 C 37.2472 4.28441 3.72872 0
459 2 C 36.4786 1.57328 1.20699 0
467 6 O 36.2987 6.56445 5.32955 0
470 7 O 37.5709 0.928261 1.10831 0
472 7 O 35.4161 1.098 0.691668 0
492 3 H 34.9331 3.74952 0.658762 0
533 2 C 35.5654 5.11121 2.19372 0
534 2 C 35.585 3.88922 1.51247 0
491 3 H 34.8933 5.89249 1.86021 0
393 3 H 37.8569 7.29147 1.89936 0
432 2 C 37.2216 8.09277 2.25657 0
433 2 C 36.3737 7.89239 3.35742 0
329 2 C 1.06409 15.7277 0.0339064 0
198 3 H 0.580615 16.5303 0.578942 0
292 3 H 3.01965 16.5868 0.29478 0
99 3 H 7.06254 11.818 0.338037 0
180 6 O 4.74137 12.8365 0.179134 0
132 2 C 7.57244 12.7324 0.0619453 0
28 3 H 11.9043 8.36835 7.02444 0
32 3 H 15.7426 10.661 6.66304 0
71 2 C 13.6541 11.2207 6.45156 0
72 2 C 12.7302 11.8494 5.59762 0
74 2 C 14.4909 12.3474 3.99454 0
75 2 C 15.414 11.7087 4.83905 0
76 2 C 15.0014 11.1505 6.05095 0
77 2 C 14.9347 12.9515 2.71783 0
84 5 N 12.9431 8.34884 6.90315 0
93 7 O 14.0652 13.4577 1.92884 0
219 3 H 11.6854 11.9206 5.87349 0
263 2 C 13.1426 12.4064 4.38466 0
33 3 H 16.3311 13.4177 1.57875 0
89 8 O 16.2073 12.9581 2.42637 0
220 3 H 12.4047 12.89 3.75653 0
31 3 H 16.4593 11.6391 4.56495 0
98 3 H 9.50065 11.8672 0.436304 0
131 2 C 8.97337 12.7591 0.117232 0
2 9 Zn 16.6113 14.1818 0.134203 0
280 7 O 16.6772 16.294 1.28553 0
83 4 N 19.1846 13.9516 0.456706 0
578 3 H 21.4441 13.1931 1.53639 0
517 2 C 24.139 14.8351 0.234883 0
672 3 H 23.8825 13.3606 1.78759 0
708 2 C 23.3868 13.958 1.03287 0
709 2 C 21.9913 13.8658 0.887461 0
461 4 N 32.8368 14.6667 0.481725 0
576 3 H 30.4809 14.836 1.65034 0
514 2 C 28.5826 14.7182 0.646716 0
515 2 C 29.9897 14.7103 0.693222 0
557 5 N 25.5706 14.9737 0.474161 0
670 3 H 28.0354 14.8465 1.57122 0
714 2 C 25.8435 16.3415 0.83784 0
394 3 H 34.9103 8.81821 4.65486 0
395 3 H 34.9648 10.9897 3.51015 0
413 3 H 37.9228 15.0165 1.03396 0
430 2 C 36.4559 10.3923 2.05798 0
431 2 C 37.2694 9.33547 1.61814 0
434 2 C 35.5697 8.95186 3.80593 0
435 2 C 35.6006 10.1888 3.15316 0
457 2 C 37.1198 15.9749 2.42303 0
460 2 C 36.4882 11.6933 1.36271 0
471 7 O 37.5578 12.0932 0.801401 0
473 7 O 35.9437 15.7047 2.00107 0
475 7 O 35.4391 12.4101 1.30168 0
487 3 H 37.9328 9.4672 0.77205 0
469 8 O 38.1835 15.4809 1.84783 0
381 9 Zn 35.395 14.4597 0.0508268 0
204 3 H 14.4488 24.1882 4.97667 0
243 2 C 15.8533 23.3679 3.55038 0
246 2 C 15.9665 22.0614 4.22938 0
247 2 C 15.9074 20.7891 3.47777 0
250 2 C 15.7483 18.3342 2.09809 0
269 2 C 15.6532 17.0415 1.39079 0
277 6 O 16.1007 22.0307 5.49859 0
282 7 O 14.5453 16.6636 0.891967 0
244 2 C 15.0238 24.3699 4.07687 0
301 3 H 14.3384 21.4356 2.13284 0
302 3 H 14.1938 19.298 0.938606 0
343 2 C 14.997 20.6254 2.4207 0
344 2 C 14.9113 19.4047 1.74293 0
241 2 C 16.5041 24.8742 1.75787 0
242 2 C 16.5903 23.6275 2.38476 0
251 2 C 16.6697 18.5042 3.14477 0
252 2 C 16.7398 19.7178 3.83663 0
203 3 H 17.2417 22.8692 1.96749 0
208 3 H 17.3222 17.6918 3.44026 0
209 3 H 17.4469 19.8219 4.65051 0
751 6 O 25.3654 16.8222 1.91831 0
676 3 H 26.4905 16.9673 0.232525 0
408 3 H 38.3733 22.0225 5.60313 0
451 2 C 37.6092 18.6943 5.73519 0
452 2 C 38.7256 18.1984 5.03902 0
454 2 C 37.2857 16.8908 3.57614 0
599 3 H 39.7273 18.5009 5.31828 0
643 2 C 38.5669 17.3069 3.97542 0
600 3 H 39.4506 16.9517 3.46005 0
449 1 C 37.8195 19.6698 6.88601 0
407 3 H 36.7839 22.5029 5.38797 0
411 3 H 35.1655 17.0883 3.98307 0
412 3 H 35.4394 18.6372 5.83123 0
455 2 C 36.1673 17.3835 4.26937 0
456 2 C 36.3263 18.2725 5.33651 0
464 5 N 37.3978 21.6627 5.48851 0
597 3 H 34.7159 23.8556 5.98567 0
598 3 H 34.488 22.7248 7.20076 0
654 5 N 34.26 23.7038 6.91443 0
405 3 H 35.9263 20.7637 6.69244 0
450 1 C 37.0154 20.9755 6.7198 0
404 3 H 38.889 19.9804 6.87231 0
100 3 H 6.86699 29.7895 2.11733 0
324 2 C 7.38104 29.7587 1.16554 0
327 2 C 2.94012 29.7613 0.96899 0
330 2 C 0.12127 29.4015 0.816354 0
367 5 N 4.3724 29.9704 1.13259 0
8 3 H 0.435248 27.8824 2.32536 0
102 3 H 2.86871 28.2044 2.45814 0
138 2 C 2.29333 28.8028 1.76306 0
139 2 C 0.902979 28.6228 1.68679 0
332 2 C 0.770477 30.3563 0.00351752 0
333 2 C 2.16144 30.5334 0.078759 0
205 3 H 14.2648 26.3655 3.85309 0
240 2 C 15.6635 25.8731 2.27539 0
245 2 C 14.9188 25.6093 3.43637 0
270 2 C 15.5521 27.1757 1.59249 0
285 7 O 14.4449 27.803 1.59139 0
281 7 O 16.5553 27.6652 0.981404 0
6 3 H 9.31347 29.8441 2.10312 0
191 9 Zn 14.1609 29.8263 0.321672 0
271 4 N 11.6191 29.8414 0.840665 0
325 2 C 8.78779 29.7876 1.1578 0
223 3 H 16.6706 30.5952 1.27382 0
279 8 O 16.9047 31.0564 2.09726 0
297 3 H 17.0832 25.0535 0.860212 0
674 3 H 21.4307 28.8774 2.09539 0
675 3 H 23.869 28.7237 1.87888 0
712 2 C 21.8874 29.1021 1.13837 0
713 2 C 23.2822 29.0175 1.01761 0
331 2 C 19.6902 29.4927 0.204838 0
710 2 C 21.088 29.452 0.0372466 0
409 3 H 32.8021 27.1101 5.7037 0
410 3 H 33.4467 28.071 3.56142 0
701 2 C 29.792 30.6821 1.35514 0
702 2 C 28.3913 30.6553 1.402 0
750 6 O 25.5611 30.8461 1.25367 0
486 3 H 26.391 27.5177 0.688522 0
699 2 C 31.895 30.1792 0.278617 0
700 2 C 30.4872 30.1435 0.261939 0
703 2 C 27.641 30.0831 0.357167 0
706 2 C 26.1432 30.045 0.443104 0
453 2 C 34.2221 27.6853 4.21168 0
601 3 H 37.5962 27.2594 4.44502 0
602 3 H 36.9543 26.2897 6.5735 0
603 3 H 37.306 28.937 1.39714 0
641 2 C 34.823 26.6303 6.32367 0
642 2 C 33.8523 27.1339 5.44016 0
644 2 C 35.5741 27.7456 3.83365 0
645 2 C 36.5461 27.2333 4.70838 0
646 2 C 36.1759 26.6808 5.93731 0
647 2 C 35.9663 28.3496 2.5399 0
659 8 O 37.2335 28.4678 2.24522 0
663 7 O 35.0529 28.7555 1.74081 0
653 4 N 40.0046 29.8713 0.103069 0
711 2 C 40.7373 29.2173 0.805993 0
253 2 C 16.121 2.16479 10.9554 0
254 2 C 15.0101 2.42316 10.1354 0
256 2 C 16.4341 3.53962 8.50212 0
268 2 C 15.9614 1.445 12.2387 0
284 7 O 14.8128 1.04457 12.6146 0
211 3 H 14.284 3.28801 8.32713 0
216 3 H 15.9159 6.17579 7.94232 0
255 2 C 15.164 3.10248 8.92349 0
210 3 H 14.0191 2.10082 10.43 0
257 2 C 17.5419 3.28572 9.33045 0
258 2 C 17.3882 2.60617 10.5407 0
278 7 O 16.9746 1.22564 12.9779 0
23 3 H 18.2647 2.42494 11.1504 0
212 3 H 18.5341 3.60627 9.03773 0
466 6 O 25.6415 3.37443 14.7857 0
429 2 C 26.1108 2.29625 14.2914 0
391 3 H 26.7774 2.36332 13.4383 0
396 3 H 35.5144 7.21365 12.3861 0
397 3 H 35.2859 5.03713 13.4763 0
438 2 C 36.2001 6.42211 12.1164 0
439 2 C 36.0654 5.17465 12.7369 0
493 3 H 38.6422 3.54581 11.2117 0
494 3 H 38.8599 5.71304 10.1038 0
531 2 C 37.3688 7.95235 10.4936 0
532 2 C 37.206 6.63669 11.1581 0
535 2 C 36.9448 4.12444 12.4248 0
536 2 C 37.9502 4.33834 11.4694 0
537 2 C 38.0728 5.57776 10.8354 0
554 2 C 36.8389 2.82415 13.1186 0
562 6 O 37.9614 8.01019 9.36426 0
565 7 O 37.8712 2.09347 13.2597 0
567 7 O 35.7268 2.44067 13.604 0
4 3 H 7.29131 14.2917 12.656 0
9 3 H 0.757684 16.4918 12.4628 0
38 2 C 6.98281 15.5591 14.3885 0
41 2 C 5.48416 15.5569 14.2654 0
47 2 C 1.20666 16.3325 13.4365 0
48 2 C 2.59769 16.4616 13.57 0
85 6 O 4.93962 14.6798 13.509 0
37 2 C 7.76266 14.8449 13.4587 0
42 2 C 3.22278 16.2843 14.8238 0
45 2 C 0.400256 16.0264 14.5459 0
3 3 H 9.72487 14.277 12.8035 0
21 3 H 15.7409 10.9474 8.85951 0
22 3 H 11.659 12.2714 9.3688 0
24 3 H 12.0627 10.6754 7.7739 0
25 3 H 14.6457 9.01944 7.94167 0
26 3 H 13.1768 8.8073 8.94922 0
34 2 C 11.2364 15.4953 14.5785 0
35 2 C 9.82907 15.5427 14.5536 0
36 2 C 9.16143 14.8374 13.5412 0
63 2 C 14.4426 13.1018 11.1413 0
64 2 C 15.3844 12.3327 10.439 0
65 2 C 14.9892 11.5396 9.35742 0
66 2 C 13.642 11.5012 8.94866 0
67 2 C 12.7039 12.2761 9.65384 0
68 2 C 13.098 13.065 10.7364 0
69 1 C 13.1761 10.6474 7.7779 0
70 1 C 13.5442 9.16028 7.95899 0
78 2 C 14.8468 13.9039 12.3173 0
94 7 O 13.9594 14.4546 13.0428 0
88 7 O 16.0745 14.0206 12.6337 0
213 3 H 12.3459 13.6422 11.2602 0
20 3 H 16.4261 12.3306 10.735 0
97 9 Zn 16.6633 15.1834 14.6559 0
46 2 C 19.9481 15.6538 14.3764 0
422 2 C 24.1681 15.4538 13.8713 0
425 2 C 21.3442 15.5455 14.2186 0
427 2 C 22.0007 14.3164 13.993 0
428 2 C 23.396 14.2709 13.8239 0
178 4 N 19.1988 14.7091 14.2969 0
389 3 H 21.4388 13.392 13.9389 0
390 3 H 23.8745 13.3179 13.6365 0
415 2 C 30.7313 14.9628 14.7544 0
418 2 C 27.8829 14.8459 14.6666 0
419 2 C 28.5957 15.7376 13.8389 0
420 2 C 30.0012 15.7945 13.8785 0
421 2 C 26.3817 14.768 14.6427 0
462 5 N 25.6046 15.4622 13.6273 0
575 3 H 28.0701 16.3984 13.1622 0
619 2 C 25.8655 14.9008 12.3265 0
656 6 O 25.4304 15.4857 11.2798 0
556 4 N 32.8306 15.7026 14.1645 0
581 3 H 26.4719 14.009 12.2097 0
414 2 C 32.1373 14.9879 14.8485 0
671 3 H 30.5124 16.4941 13.2286 0
392 3 H 39.0617 11.5659 12.8238 0
488 3 H 39.3031 9.43746 11.6394 0
489 3 H 35.0476 9.29337 10.9921 0
490 3 H 34.7895 11.4269 12.1807 0
525 2 C 36.9054 11.6654 12.5993 0
526 2 C 38.1744 11.0803 12.4372 0
527 2 C 38.3152 9.86492 11.7623 0
528 2 C 37.1923 9.20901 11.2419 0
529 2 C 35.9233 9.78259 11.4007 0
530 2 C 35.7796 11.001 12.0765 0
555 2 C 36.7665 12.9687 13.2932 0
566 7 O 37.7971 13.5605 13.7519 0
570 7 O 35.6221 13.5124 13.4263 0
426 2 C 41.0165 15.9593 14.3692 0
476 9 Zn 35.4143 15.6587 14.5095 0
477 9 Zn 37.675 15.6781 14.8772 0
10 3 H 3.18861 16.7215 12.7007 0
201 3 H 5.65543 18.0653 13.8298 0
239 2 C 4.97237 17.8481 14.644 0
206 3 H 14.7137 22.4959 12.6537 0
207 3 H 14.3758 20.3182 13.6996 0
248 2 C 15.3684 21.6825 12.3751 0
249 2 C 15.1704 20.4323 12.9724 0
342 2 C 16.3962 21.8699 11.4332 0
345 2 C 16.0062 19.3491 12.6546 0
364 2 C 15.8331 18.0446 13.3275 0
377 7 O 14.7024 17.7143 13.8107 0
299 3 H 14.2509 24.4616 11.1985 0
338 2 C 16.3892 24.4524 11.513 0
341 2 C 16.6318 23.1893 10.7917 0
577 3 H 24.0807 17.5903 14.1398 0
613 2 C 23.5112 16.67 14.106 0
614 2 C 22.1198 16.7157 14.2818 0
673 3 H 21.6463 17.6755 14.4541 0
303 3 H 17.6934 18.7159 11.4552 0
304 3 H 18.0229 20.8871 10.3877 0
346 2 C 17.0332 19.5339 11.7166 0
347 2 C 17.2195 20.7772 11.1055 0
372 6 O 17.315 23.2438 9.7144 0
375 7 O 16.8262 17.2582 13.4554 0
298 3 H 18.4789 24.7628 11.9646 0
406 3 H 37.2059 21.6433 7.59047 0
595 3 H 35.9834 24.5349 7.81573 0
402 3 H 39.6599 18.9565 8.77681 0
447 2 C 38.6479 18.7105 9.07405 0
448 2 C 38.4456 18.0867 10.3071 0
474 7 O 35.7663 16.7512 12.4069 0
593 3 H 39.306 17.8704 10.9283 0
400 3 H 35.0517 17.7937 10.1912 0
401 3 H 35.401 18.8861 8.0505 0
443 2 C 37.1508 17.7429 10.7289 0
444 2 C 36.0626 18.0422 9.89267 0
445 2 C 36.265 18.6656 8.65817 0
446 2 C 37.5624 19.0041 8.2293 0
458 2 C 36.9396 17.071 12.0306 0
468 7 O 37.9326 16.8018 12.78 0
596 3 H 34.5821 24.2832 8.90692 0
640 1 C 34.876 24.6068 7.88351 0
7 3 H 2.69715 29.9113 12.727 0
43 2 C 2.2178 30.2028 13.653 0
44 2 C 0.819059 30.3373 13.6928 0
103 3 H 0.252475 30.1516 12.7886 0
5 3 H 6.89559 29.5905 13.7705 0
229 2 C 7.42804 30.372 14.2974 0
232 2 C 2.99588 30.4189 14.8017 0
272 5 N 4.43535 30.1994 14.7442 0
300 3 H 13.8849 26.5974 12.3519 0
335 2 C 15.9782 26.916 12.8266 0
339 2 C 15.0974 24.9853 11.6255 0
340 2 C 14.892 26.206 12.2807 0
365 2 C 15.7719 28.2174 13.507 0
380 7 O 14.6001 28.6957 13.647 0
286 9 Zn 14.2385 30.831 14.7212 0
366 4 N 11.6692 30.5859 14.4303 0
230 2 C 8.83515 30.3667 14.2775 0
101 3 H 9.34576 29.5771 13.74 0
202 3 H 18.1294 26.8968 13.1114 0
337 2 C 17.4735 25.1566 12.0529 0
336 2 C 17.2712 26.3754 12.7059 0
376 7 O 16.7691 28.8707 13.9533 0
579 3 H 21.5165 31.4336 12.4722 0
580 3 H 23.9488 31.72 12.6168 0
617 2 C 21.9838 31.4653 13.4497 0
618 2 C 23.3753 31.6258 13.5304 0
612 2 C 24.0237 31.6865 14.7832 0
615 2 C 21.2007 31.3673 14.6121 0
236 2 C 19.8036 31.2431 14.4779 0
403 3 H 33.2851 29.0672 11.0539 0
592 3 H 32.7295 27.6094 9.18208 0
594 3 H 33.2737 25.9836 7.65296 0
611 2 C 26.2732 30.8678 14.3178 0
604 2 C 32.0267 30.9155 14.4802 0
605 2 C 30.6192 30.9325 14.4931 0
573 3 H 30.4912 29.4506 12.9234 0
574 3 H 28.0532 29.4172 12.8418 0
606 2 C 29.9378 30.094 13.5983 0
607 2 C 28.5376 30.0742 13.5533 0
608 2 C 27.7722 30.8968 14.4015 0
655 6 O 25.7171 29.8694 13.7418 0
637 2 C 33.766 27.6945 9.48415 0
590 3 H 37.4545 28.0289 10.6264 0
591 3 H 36.9008 26.5603 8.77307 0
633 2 C 35.4153 28.6706 10.9823 0
634 2 C 36.4207 27.954 10.3126 0
635 2 C 36.1018 27.1122 9.24327 0
636 2 C 34.7686 26.9706 8.81381 0
638 2 C 34.0844 28.533 10.5551 0
639 1 C 34.3856 26.0523 7.66216 0
648 2 C 35.7446 29.5179 12.1502 0
658 7 O 36.9568 29.7071 12.4888 0
664 7 O 34.8134 30.0307 12.8488 0
667 9 Zn 37.4877 30.9238 14.4882 0
748 4 N 40.0308 30.6117 14.0686 0
666 9 Zn 35.2586 31.2754 14.8407 0
275 6 O 4.98123 1.59276 15.3477 0
194 3 H 7.29594 2.2647 16.198 0
227 2 C 7.80313 1.47892 15.6522 0
193 3 H 9.73708 2.25296 16.1674 0
226 2 C 9.20452 1.47212 15.6363 0
16 3 H 12.6129 6.16796 17.7891 0
17 3 H 12.957 4.03221 16.6424 0
58 2 C 13.6137 5.75819 17.7236 0
59 2 C 13.813 4.5392 17.0704 0
152 2 C 14.6962 6.44364 18.29 0
155 2 C 15.1009 3.98134 16.9766 0
156 2 C 16.1846 4.67227 17.5508 0
157 2 C 15.9822 5.89294 18.2054 0
174 2 C 15.3056 2.68289 16.2925 0
187 7 O 14.3132 2.05693 15.7989 0
185 7 O 16.4715 2.18018 16.1962 0
151 2 C 14.4608 7.71359 18.9989 0
182 6 O 13.7781 7.67531 20.0771 0
114 3 H 16.8265 6.40523 18.6503 0
113 3 H 17.1875 4.26731 17.4996 0
385 3 H 28.2465 1.48141 15.9822 0
481 3 H 30.6958 1.51903 16.06 0
693 3 H 38.5177 7.81585 20.6462 0
749 5 N 37.5428 7.46333 20.5068 0
689 3 H 39.0152 5.73295 21.8493 0
734 1 C 37.9458 5.42184 21.838 0
735 1 C 37.1437 6.73281 21.7075 0
504 3 H 39.8755 4.304 20.2612 0
505 3 H 39.6255 2.80687 18.3571 0
548 2 C 38.7345 3.14942 18.8686 0
736 2 C 37.7516 4.48651 20.6525 0
737 2 C 38.8779 4.011 19.9583 0
739 2 C 37.4592 2.7449 18.4403 0
742 2 C 37.3107 1.85411 17.2661 0
696 3 H 35.3332 2.931 18.822 0
697 3 H 35.581 4.42706 20.718 0
740 2 C 36.3307 3.21935 19.1297 0
741 2 C 36.4744 4.07757 20.2238 0
758 7 O 36.1429 1.61494 16.8044 0
690 3 H 36.0552 6.5224 21.6579 0
754 8 O 38.3812 1.34681 16.716 0
82 5 N 4.65372 16.4918 15.0129 0
39 2 C 7.6511 16.2621 15.4127 0
197 3 H 2.87492 15.8272 16.9024 0
233 2 C 2.41974 15.9599 15.929 0
234 2 C 1.02589 15.8308 15.7964 0
293 3 H 0.439691 15.5962 16.6765 0
40 2 C 9.05729 16.2572 15.4944 0
96 9 Zn 14.4585 15.6592 15.0376 0
176 4 N 11.912 16.0768 15.394 0
109 3 H 13.1149 10.0434 19.4031 0
110 3 H 13.456 12.1934 18.2984 0
145 2 C 15.1078 11.517 17.0728 0
147 2 C 15.7169 9.17984 17.3747 0
148 2 C 14.7051 9.02168 18.3392 0
149 2 C 13.9053 10.1309 18.668 0
150 2 C 14.0983 11.3619 18.0353 0
175 2 C 15.2857 12.8091 16.3785 0
190 7 O 14.308 13.6174 16.2816 0
146 2 C 15.9212 10.4173 16.7545 0
186 7 O 16.4038 13.1094 15.8498 0
108 3 H 16.3535 8.35225 17.0949 0
12 3 H 16.7024 10.5086 16.0099 0
128 3 H 16.9901 15.9946 16.0834 0
184 8 O 17.2721 16.4343 16.9035 0
465 6 O 25.7883 14.1251 15.5765 0
694 3 H 32.922 12.8982 20.5769 0
695 3 H 33.5576 13.9244 18.4603 0
383 3 H 30.5502 13.4286 16.2673 0
384 3 H 28.113 13.3215 16.192 0
416 2 C 30.0203 14.0793 15.5809 0
417 2 C 28.6197 14.02 15.538 0
692 3 H 36.9326 8.3086 20.4296 0
503 3 H 34.5531 8.47093 21.9044 0
502 3 H 34.7787 9.64383 20.7293 0
506 3 H 37.7105 13.0903 19.3043 0
507 3 H 37.0784 12.0533 21.4019 0
508 3 H 37.4252 14.8884 16.3309 0
546 2 C 34.9461 12.4014 21.1737 0
549 2 C 35.6858 13.5941 18.7163 0
550 2 C 36.6616 13.0567 19.5714 0
551 2 C 36.297 12.4649 20.783 0
552 2 C 36.0752 14.2316 17.4381 0
558 4 N 40.2523 15.7178 15.2734 0
559 5 N 34.338 9.46408 21.6604 0
564 8 O 37.3415 14.4221 17.1804 0
568 7 O 35.164 14.5866 16.6157 0
547 2 C 33.9711 12.9318 20.3101 0
738 2 C 34.3353 13.5204 19.0967 0
276 6 O 4.49163 18.8214 15.3139 0
195 3 H 7.08973 16.8155 16.1541 0
291 3 H 9.53626 16.81 16.2932 0
127 3 H 14.7518 19.7624 20.8895 0
171 2 C 15.6107 19.341 20.3904 0
120 3 H 15.3943 21.836 21.7666 0
172 2 C 16.2448 17.0214 17.4557 0
188 7 O 15.0587 16.8594 17.0067 0
170 2 C 15.3894 18.4778 19.3131 0
126 3 H 14.3696 18.2574 19.0226 0
313 3 H 12.6667 24.6443 22.0434 0
312 3 H 14.1243 23.8279 22.0942 0
369 5 N 13.6993 24.7674 21.9299 0
122 3 H 16.3747 23.5257 20.488 0
165 1 C 16.4948 21.9713 21.8022 0
169 2 C 16.4707 17.9135 18.6164 0
166 2 C 16.9205 19.6649 20.7944 0
164 1 C 17.2003 20.6088 21.9559 0
179 5 N 16.9301 22.6444 20.5809 0
167 2 C 17.9991 19.0979 20.094 0
314 3 H 19.0197 19.3241 20.3772 0
315 3 H 18.635 17.8193 18.5036 0
358 2 C 17.778 18.2318 19.0214 0
119 3 H 18.29 20.8392 21.9495 0
123 3 H 17.9273 22.935 20.7045 0
586 3 H 33.796 21.9296 17.6914 0
587 3 H 34.0368 19.8002 16.5076 0
628 2 C 34.78 21.4869 17.5941 0
629 2 C 34.9206 20.2713 16.9196 0
683 3 H 38.2922 19.8738 17.2643 0
684 3 H 38.0344 22.0088 18.4506 0
721 2 C 35.7238 23.3835 18.8881 0
722 2 C 35.8986 22.1237 18.1461 0
725 2 C 36.1847 19.668 16.7895 0
726 2 C 37.306 20.3138 17.3441 0
727 2 C 37.1626 21.5322 18.0193 0
744 2 C 36.3232 18.3657 16.0946 0
752 6 O 35.137 23.3326 20.0208 0
755 7 O 37.4607 17.8038 15.9934 0
757 7 O 35.2994 17.7919 15.6026 0
718 2 C 35.8861 24.6935 18.2135 0
678 3 H 37.56 24.0954 16.9718 0
717 2 C 36.8822 24.8938 17.2421 0
235 2 C 0.16515 30.6962 14.8912 0
228 2 C 6.71986 31.3735 14.9906 0
231 2 C 5.22029 31.389 15.0468 0
199 3 H 0.473979 31.2022 16.9726 0
200 3 H 2.91256 30.949 16.9021 0
237 2 C 0.945741 30.9263 16.0365 0
238 2 C 2.34073 30.786 15.9971 0
11 3 H 5.43334 29.3017 16.4986 0
49 2 C 4.7723 29.1345 15.655 0
86 6 O 4.33519 27.9544 15.4466 0
225 2 C 9.56774 31.3654 14.9548 0
224 2 C 10.9749 31.396 14.9958 0
287 9 Zn 16.4922 30.9702 15.0761 0
124 3 H 11.9635 28.0987 20.8654 0
125 3 H 12.5413 29.0928 18.7187 0
168 2 C 13.3394 28.7333 19.3563 0
356 2 C 14.0095 27.6906 21.4539 0
357 2 C 13.0082 28.1636 20.5875 0
359 2 C 14.6824 28.8444 18.9591 0
362 2 C 15.0333 29.4627 17.6606 0
378 7 O 14.099 29.7657 16.8438 0
317 3 H 16.1555 27.4229 21.6674 0
360 2 C 15.6854 28.3657 19.8174 0
361 2 C 15.3539 27.7927 21.0479 0
318 3 H 16.3348 30.1671 16.5308 0
374 8 O 16.2871 29.6936 17.3791 0
387 3 H 23.7175 31.6257 16.9169 0
483 3 H 21.2809 31.3449 16.7846 0
423 2 C 23.2436 31.5734 15.9448 0
424 2 C 21.8492 31.4159 15.8652 0
368 4 N 19.0585 31.1788 15.4266 0
316 3 H 16.7296 28.4297 19.5376 0
652 5 N 25.4568 31.9227 14.9031 0
609 2 C 28.4537 31.7346 15.3075 0
610 2 C 29.8605 31.7541 15.354 0
746 4 N 32.7075 31.5972 15.2084 0
679 3 H 34.2498 25.635 19.2792 0
582 3 H 37.7885 26.2612 15.8597 0
616 2 C 40.7796 30.8239 14.9926 0
680 3 H 34.4675 27.7916 18.1508 0
698 3 H 37.7852 31.7693 15.9034 0
715 2 C 36.1469 27.1925 16.9223 0
716 2 C 37.0168 26.1347 16.6091 0
719 2 C 35.0292 25.7597 18.5376 0
720 2 C 35.1517 26.9928 17.8916 0
745 2 C 36.2529 28.4867 16.2173 0
756 7 O 37.3589 28.853 15.7043 0
760 7 O 35.2264 29.2298 16.0965 0
295 3 H 3.10466 2.71322 29.2242 0
294 3 H 0.677708 2.40424 29.0849 0
57 2 C 15.0239 7.62882 26.3225 0
60 2 C 15.3122 5.14952 27.6345 0
79 2 C 15.4565 3.85167 28.3355 0
92 7 O 14.4336 3.27277 28.8238 0
112 3 H 13.1572 5.24868 27.8717 0
153 2 C 13.9014 6.96415 26.8324 0
154 2 C 14.043 5.73723 27.4853 0
111 3 H 12.914 7.39669 26.7235 0
61 2 C 16.4366 5.81946 27.1161 0
62 2 C 16.2922 7.04939 26.4625 0
90 7 O 16.6018 3.31132 28.4678 0
18 3 H 17.4272 5.39301 27.2137 0
19 3 H 17.1673 7.54582 26.0615 0
498 3 H 39.3864 3.45905 25.8178 0
687 3 H 39.7647 4.62167 23.7122 0
691 3 H 37.3222 7.36911 22.6039 0
732 2 C 38.7487 4.37223 23.9922 0
685 3 H 35.1371 3.44315 25.0494 0
686 3 H 35.5114 4.61056 22.951 0
728 2 C 37.2318 3.35536 25.5986 0
729 2 C 36.152 3.69385 24.7665 0
730 2 C 36.3687 4.36107 23.5572 0
731 2 C 37.672 4.70701 23.1521 0
733 2 C 38.5323 3.70347 25.1985 0
743 2 C 37.0077 2.64756 26.8788 0
753 7 O 37.9984 2.30838 27.6025 0
759 7 O 35.8282 2.37507 27.2682 0
104 3 H 0.541645 15.1624 28.1025 0
105 3 H 2.98106 15.2257 27.8313 0
143 2 C 2.49289 16.0142 28.3901 0
133 2 C 6.96695 16.1841 29.4182 0
136 2 C 5.46593 16.1306 29.3664 0
142 2 C 1.09548 15.9822 28.5432 0
296 3 H 5.57965 16.4678 26.8412 0
129 2 C 11.2224 16.204 29.6096 0
130 2 C 9.81576 16.2355 29.5314 0
56 2 C 14.848 8.90525 25.6102 0
87 6 O 14.244 8.88107 24.4857 0
14 3 H 13.3452 11.1474 25.3132 0
15 3 H 13.589 13.2888 26.4598 0
50 2 C 15.3107 12.6852 27.6268 0
53 2 C 15.0208 10.2012 26.3105 0
54 2 C 14.1465 11.2655 26.0322 0
55 2 C 14.2836 12.4901 26.69 0
80 2 C 15.4425 13.9841 28.3195 0
95 7 O 14.4184 14.725 28.471 0
51 2 C 16.195 11.6284 27.8992 0
91 7 O 16.5715 14.3703 28.7664 0
52 2 C 16.0457 10.3939 27.2543 0
13 3 H 16.738 9.5971 27.4897 0
107 3 H 16.993 11.7526 28.6209 0
499 3 H 33.4039 11.7272 22.498 0
497 3 H 32.9061 13.3125 24.0843 0
688 3 H 33.5074 14.6982 25.996 0
478 3 H 30.7428 16.5423 27.1452 0
560 6 O 25.9708 16.5106 28.0174 0
479 3 H 28.3064 16.5729 27.0603 0
495 3 H 37.6511 13.5923 25.4985 0
496 3 H 37.0517 12.1918 23.6062 0
500 3 H 36.0925 10.2328 22.5574 0
501 3 H 34.7092 9.95998 23.6671 0
539 2 C 36.6133 13.5462 25.1922 0
540 2 C 36.2679 12.7446 24.1001 0
541 2 C 34.9285 12.6455 23.6767 0
544 1 C 34.5167 11.7788 22.4949 0
545 1 C 34.988 10.3187 22.6512 0
538 2 C 35.6284 14.2615 25.8923 0
542 2 C 33.9465 13.3658 24.3803 0
543 2 C 34.2911 14.1624 25.4746 0
553 2 C 35.9847 15.0764 27.0748 0
563 7 O 37.2041 15.293 27.3687 0
569 7 O 35.0687 15.5429 27.8239 0
382 9 Zn 37.7495 16.4976 29.3749 0
463 4 N 40.3009 16.209 28.9376 0
134 2 C 7.68306 17.348 29.0707 0
137 2 C 3.25486 17.0736 28.9329 0
140 2 C 0.426305 17.0076 29.2458 0
177 5 N 4.69335 17.1873 28.731 0
290 3 H 7.15905 18.2428 28.7611 0
328 2 C 2.58557 18.082 29.6408 0
334 2 C 4.96803 17.2267 27.3173 0
371 6 O 4.53884 18.198 26.6105 0
116 3 H 14.7241 20.0208 23.1117 0
160 2 C 15.5661 19.7199 23.716 0
1 9 Zn 14.4979 16.8467 29.5713 0
81 4 N 11.9216 17.145 29.3182 0
196 3 H 9.60379 18.2873 28.8494 0
135 2 C 9.08923 17.3746 29.1239 0
158 2 C 16.3681 18.7037 25.7763 0
173 2 C 16.0959 18.0456 27.0729 0
189 7 O 14.8985 17.8964 27.4768 0
159 2 C 15.3102 19.1055 24.9442 0
115 3 H 14.2813 18.9441 25.2411 0
161 2 C 16.8879 19.9495 23.2901 0
121 3 H 16.7275 22.6132 22.6821 0
117 3 H 18.9735 19.713 23.8342 0
162 2 C 17.9441 19.5525 24.13 0
163 2 C 17.6881 18.935 25.3565 0
308 3 H 18.5259 18.6385 25.9756 0
183 7 O 17.0577 17.6208 27.7915 0
484 3 H 21.7064 18.4645 28.1496 0
485 3 H 24.1408 18.6209 28.4068 0
522 2 C 22.1969 17.8398 28.8873 0
523 2 C 23.5897 17.9291 29.0313 0
141 2 C 20.0384 16.9781 29.5622 0
520 2 C 21.4408 16.9791 29.7009 0
511 2 C 30.1909 16.6849 28.0675 0
512 2 C 28.7902 16.7 28.0205 0
513 2 C 28.0244 16.8798 29.189 0
516 2 C 26.5226 16.8987 29.105 0
509 2 C 32.2825 16.8207 29.2634 0
510 2 C 30.8746 16.8535 29.2808 0
681 3 H 35.2229 23.6487 27.4977 0
588 3 H 38.1923 19.9903 25.936 0
589 3 H 38.2214 22.1568 24.78 0
627 2 C 36.73 23.0649 26.0578 0
630 2 C 36.6765 20.5698 27.3693 0
631 2 C 37.5406 20.7827 26.283 0
632 2 C 37.5571 22.0169 25.6239 0
649 2 C 36.6525 19.2687 28.0653 0
660 7 O 37.7162 18.576 28.1617 0
662 7 O 35.5723 18.8441 28.5889 0
521 2 C 41.0401 17.0424 29.406 0
682 3 H 35.1712 21.4762 28.6352 0
723 2 C 35.8758 22.8565 27.1521 0
724 2 C 35.8419 21.6157 27.7961 0
626 2 C 36.736 24.3613 25.3482 0
657 6 O 36.7792 24.373 24.0724 0
322 2 C 7.50006 31.9558 28.5168 0
370 6 O 4.68773 31.6393 28.6245 0
323 2 C 6.77968 32.0075 29.7256 0
326 2 C 5.27805 31.9844 29.7062 0
289 3 H 6.97968 31.8998 27.5689 0
321 2 C 8.90128 31.9818 28.5087 0
319 2 C 11.0341 32.0823 29.6336 0
320 2 C 9.62837 32.0608 29.706 0
288 3 H 9.4191 31.9417 27.557 0
118 3 H 12.3779 29.8965 26.3029 0
307 3 H 11.8844 28.4537 24.403 0
309 3 H 12.5048 26.9564 22.7863 0
348 2 C 14.5295 29.6777 26.1581 0
351 2 C 13.9565 27.9947 23.9562 0
352 2 C 12.9197 28.6145 24.6772 0
353 2 C 13.2018 29.4433 25.7653 0
354 1 C 13.6118 27.079 22.7902 0
363 2 C 14.8231 30.5197 27.338 0
379 7 O 13.8847 30.8535 28.1288 0
192 9 Zn 16.5173 32.0941 29.6116 0
373 7 O 16.0152 30.8892 27.5893 0
306 3 H 16.1137 27.7622 23.8454 0
310 3 H 15.2853 25.6672 22.9803 0
311 3 H 13.8479 25.2635 23.9754 0
349 2 C 15.5689 29.0674 25.4381 0
350 2 C 15.2865 28.2323 24.3532 0
355 1 C 14.1747 25.6573 22.9863 0
305 3 H 16.602 29.2192 25.7253 0
388 3 H 21.2689 32.3288 27.7012 0
482 3 H 23.7131 32.1811 27.4986 0
273 4 N 19.0548 32.0723 29.0695 0
518 2 C 23.2486 31.9759 28.4548 0
519 2 C 21.8503 32.0557 28.5734 0
707 2 C 24.0456 31.6116 29.5519 0
561 6 O 25.4058 29.1621 28.8938 0
386 3 H 30.3689 31.474 28.1077 0
480 3 H 27.9217 31.4285 28.1921 0
524 2 C 25.8423 30.0959 29.6452 0
651 4 N 32.7013 32.0675 29.1432 0
704 2 C 28.4634 31.87 29.0187 0
705 2 C 29.8692 31.8993 28.9694 0
747 5 N 25.4845 31.4656 29.375 0
572 9 Zn 37.5438 32.046 29.7172 0
571 9 Zn 35.2867 32.1711 29.3644 0
583 3 H 38.198 25.1082 27.5198 0
584 3 H 35.155 26.4994 24.7999 0
622 2 C 37.5126 25.8758 27.1815 0
623 2 C 36.6772 25.6449 26.077 0
585 3 H 35.0773 28.6493 25.9844 0
620 2 C 36.6069 28.1203 27.4226 0
621 2 C 37.486 27.1089 27.8425 0
624 2 C 35.8054 26.6583 25.6515 0
625 2 C 35.7605 27.882 26.3275 0
650 2 C 36.5726 29.4201 28.1197 0
661 7 O 37.6412 29.9229 28.5943 0
665 7 O 35.4713 30.0455 28.2452 0
677 3 H 38.1455 27.2703 28.6864 0
ITEM: TIMESTEP
2500
ITEM: NUMBER OF ATOMS
760
ITEM: BOX BOUNDS xy xz yz pp pp pp
-3.4904653551145415e-01 4.0472532284727166e+01 -1.6677117961231120e+00
8.1531792449732343e-01 3.0552584615024251e+01 -2.2219619466101462e-01
6.0645647575586636e-01 2.9158333384244038e+01 4.7362153952155300e-01
ITEM: ATOMS id type element x y z q
106 3 H 7.04426 1.42432 2.66213 0
144 2 C 4.71853 29.9523 3.11154 0
181 6 O 6.07568 0.816661 4.34212 0
295 3 H 4.55442 1.53938 1.18655 0
27 3 H 11.6088 7.16464 6.42276 0
217 3 H 15.1077 7.75587 7.13386 0
222 3 H 14.2908 3.83576 7.08669 0
265 2 C 15.2601 2.88827 5.43256 0
266 2 C 15.2411 3.64834 6.60825 0
221 3 H 14.3247 2.50369 5.04525 0
215 3 H 14.4527 5.84125 8.27709 0
283 7 O 15.4393 1.24051 3.13974 0
28 3 H 10.4797 8.40358 6.40337 0
84 5 N 11.5068 8.2053 6.4049 0
211 3 H 14.1951 3.66565 9.39756 0
255 2 C 15.0823 3.48805 9.98831 0
264 2 C 16.476 2.61577 4.77768 0
267 2 C 16.52 1.76211 3.56943 0
261 2 C 16.4377 4.1581 7.14887 0
274 5 N 15.8565 7.04446 7.25593 0
260 1 C 15.5047 6.18198 8.38295 0
259 1 C 16.4683 4.98491 8.42613 0
218 3 H 16.7268 7.5701 7.50217 0
73 2 C 17.6651 3.12881 5.31615 0
262 2 C 17.6453 3.89135 6.48288 0
214 3 H 17.48 5.44646 8.4944 0
29 3 H 18.584 4.26468 6.87319 0
30 3 H 18.619 2.93285 4.84258 0
279 8 O 17.6716 1.5106 3.00363 0
256 2 C 16.304 4.10435 9.6546 0
216 3 H 15.5788 6.75899 9.33237 0
212 3 H 18.3842 4.30745 10.234 0
398 3 H 36.033 3.1279 4.30155 0
399 3 H 35.6435 5.16957 5.61359 0
436 2 C 33.893 7.18046 5.05038 0
437 2 C 34.0561 5.89843 4.33818 0
440 2 C 34.4938 3.5558 2.83858 0
441 2 C 35.2558 3.81512 3.99068 0
442 2 C 35.0306 4.97441 4.74201 0
459 2 C 34.7622 2.36795 2.00493 0
467 6 O 33.9468 7.21482 6.32484 0
470 7 O 35.9291 1.86484 1.95552 0
472 7 O 33.8336 1.86197 1.30162 0
492 3 H 32.8945 4.28989 1.57414 0
533 2 C 33.2824 5.63143 3.19833 0
534 2 C 33.4918 4.46439 2.4608 0
491 3 H 32.5289 6.33721 2.86989 0
393 3 H 35.7366 7.77761 3.16634 0
494 3 H 37.6826 5.35848 9.40931 0
531 2 C 36.2339 7.66116 9.66914 0
562 6 O 36.909 7.71901 8.587 0
32 3 H 14.7073 10.0602 6.80603 0
71 2 C 12.7328 10.885 6.4405 0
72 2 C 11.9934 11.7 5.56522 0
74 2 C 13.9889 12.161 4.25013 0
75 2 C 14.7235 11.3271 5.1056 0
76 2 C 14.1023 10.6919 6.18125 0
77 2 C 14.6533 12.8524 3.12411 0
93 7 O 13.9462 13.554 2.32255 0
219 3 H 10.936 11.8674 5.7286 0
263 2 C 12.6126 12.3282 4.48161 0
33 3 H 16.2014 13.2607 2.19277 0
89 8 O 15.9442 12.7332 2.96746 0
220 3 H 12.0144 12.9589 3.83555 0
31 3 H 15.7829 11.1665 4.94835 0
98 3 H 10.125 12.1372 0.819616 0
21 3 H 14.5044 9.78577 8.93907 0
22 3 H 10.8591 12.0825 9.31514 0
24 3 H 10.9684 10.5405 7.60562 0
25 3 H 13.1042 8.35722 7.75929 0
26 3 H 11.4864 8.34721 8.5125 0
65 2 C 13.8903 10.5238 9.42956 0
66 2 C 12.609 10.8589 8.94288 0
67 2 C 11.8469 11.7997 9.65734 0
69 1 C 12.0475 10.2693 7.65364 0
70 1 C 12.0722 8.72965 7.64647 0
2 9 Zn 16.5978 14.1448 0.859721 0
83 4 N 19.0568 13.8557 1.3232 0
578 3 H 21.5805 13.6865 2.1117 0
672 3 H 23.7754 14.7206 2.52729 0
708 2 C 22.9592 15.3338 2.16626 0
709 2 C 21.7083 14.7456 1.92413 0
141 2 C 19.355 15.0199 1.22667 0
520 2 C 20.6356 15.5293 1.45643 0
461 4 N 31.1634 15.2753 1.02105 0
576 3 H 28.9015 15.1776 2.21452 0
515 2 C 28.4887 15.8904 1.51071 0
432 2 C 35.0287 8.57925 3.33913 0
433 2 C 34.009 8.43796 4.29193 0
394 3 H 32.3181 9.39948 5.23589 0
395 3 H 32.5073 11.468 3.91669 0
413 3 H 36.1113 15.1133 1.285 0
430 2 C 34.2407 10.8074 2.79131 0
431 2 C 35.1477 9.75419 2.60105 0
434 2 C 33.1106 9.49345 4.50358 0
435 2 C 33.2194 10.6692 3.75029 0
460 2 C 34.355 12.0282 1.97001 0
471 7 O 35.4277 12.2742 1.33364 0
475 7 O 33.3745 12.8281 1.86971 0
487 3 H 35.9414 9.83089 1.8681 0
469 8 O 36.4528 15.6059 2.05115 0
489 3 H 34.3583 9.56988 9.21837 0
250 2 C 15.978 18.2077 3.16256 0
269 2 C 15.8035 17.0041 2.31141 0
282 7 O 14.7398 16.8292 1.63564 0
301 3 H 14.8158 21.3907 3.48631 0
302 3 H 14.5151 19.4006 2.10302 0
343 2 C 15.4061 20.5102 3.70703 0
344 2 C 15.2299 19.3696 2.91606 0
280 7 O 16.7224 16.1304 2.24756 0
517 2 C 23.1651 16.7024 1.93033 0
243 2 C 16.2818 23.0657 5.02952 0
247 2 C 16.3255 20.5123 4.7728 0