Created by Ryther's code on 2025-07-31 16:51:44.646058, modified by xyan11@uic.edu. 

    1152 atoms
    1536 bonds
    3648 angles
    2880 dihedrals
    576 impropers

    6 atom types
    8 bond types
    17 angle types
    4 dihedral types
    3 improper types

0.00000000 21.886 xlo xhi
0.00000000 23.656 ylo yhi
0.00000000 38.522 zlo zhi
0.0 0.0 0.0 xy xz yz 

Masses 

    1    12.0107  #   C
    2    151.964  #  Eu
    3    1.00794  #   H
    4    14.0067  #   N
    5    15.9994  #   O
    6    15.9994  #   O

Pair Coeffs

    1       0.10500      3.43085  #  C_R C_R
    2       0.00800      3.11191  #  Eu6f3 Eu6f3
    3       0.04400      2.57113  #  H_ H_
    4       0.06900      3.26069  #  N_R N_R
    5       0.06000      3.11815  #  O_1 O_1
    6       0.06000      3.11815  #  O_2_M O_2_M

Bond Coeffs

    1     212.51899      2.28158  #  Eu6f3 O_2_M bond order=0.5
    2     199.76913      2.40867  #  Eu6f3 N_R bond order=0.5
    3     357.44038      1.08142  #  C_R H_ bond order=1.0
    4     663.66675      1.34507  #  C_R N_R bond order=1.5
    5     391.66951      1.45800  #  C_R C_R bond order=1.0
    6     462.65505      1.37926  #  C_R C_R bond order=1.5
    7     714.55744      1.26901  #  C_R O_2_M bond order=1.5
    8     706.67500      1.27367  #  C_R O_1 bond order=1.5

Angle Coeffs

    1      78.43565            1            4  #  O_2_M Eu6f3 O_2_M
    2      79.68234            1            4  #  N_R Eu6f3 O_2_M
    3      81.54537            1            4  #  N_R Eu6f3 N_R
    4      79.78069           -1            3  #  H_ C_R N_R
    5     212.40917           -1            3  #  N_R C_R N_R
    6     140.82706           -1            3  #  C_R C_R N_R
    7     102.18328           -1            3  #  C_R C_R C_R
    8     153.68727           -1            3  #  C_R C_R N_R
    9      57.28902           -1            3  #  C_R C_R H_
    10    111.29751           -1            3  #  C_R C_R C_R
    11    137.71425           -1            3  #  C_R C_R O_2_M
    12    206.77843           -1            3  #  O_2_M C_R O_2_M
    13    137.04263           -1            3  #  C_R C_R O_1
    14    205.62388           -1            3  #  O_1 C_R O_2_M
    15     68.79105           -1            3  #  C_R N_R Eu6f3
    16    120.00052           -1            3  #  C_R N_R C_R
    17     81.17729           -1            3  #  C_R O_2_M Eu6f3

Dihedral Coeffs

    1       3.36856           -1            2  #  X C_R N_R X bond order=1.5
    2       1.25000           -1            2  #  X C_R C_R X bond order=1.0
    3       3.36856           -1            2  #  X C_R C_R X bond order=1.5
    4       6.73711           -1            2  #  X C_R O_2_M X bond order=1.5

Improper Coeffs

    1       2.00000      1.00000     -1.00000      0.00000            1  #  C_R X X X O_2 present=False
    2      16.66667      1.00000     -1.00000      0.00000            1  #  C_R X X X O_2 present=True
    3       2.00000      1.00000     -1.00000      0.00000            1  #  N_R X X X O_2 present=False

Atoms # a, b, c, alpha, beta, gamma: 21.8860000000, 23.6560000000, 38.5220000000, 90.0000000000, 90.0000000000, 90.0000000000 $$$atoms$$$

    1 1     2      0.00000      9.43779      9.96497      1.98408   #   Eu1   0.43122500   0.42124500   0.05150500
    2 1     2      0.00000      4.16994      0.33674      6.11460   #   Eu2   0.19053000   0.01423500   0.15873000
    3 1     2      0.00000      1.50521      1.86303     11.61458   #   Eu3   0.06877500   0.07875500   0.30150500
    4 1     2      0.00000      6.77306     11.49126     15.74510   #   Eu4   0.30947000   0.48576500   0.40873000
    5 1     2      0.00000      6.97671      4.05097      1.98408   #   Eu5   0.31877500   0.17124500   0.05150500
    6 1     2      0.00000      1.30156      6.25074      6.11460   #   Eu6   0.05947000   0.26423500   0.15873000
    7 1     2      0.00000      3.96629      7.77703     11.61458   #   Eu7   0.18122500   0.32875500   0.30150500
    8 1     2      0.00000      9.64144      5.57726     15.74510   #   Eu8   0.44053000   0.23576500   0.40873000
    9 1     3      0.00000      7.06480     11.76295      4.00051   #    H1   0.32280000   0.49725000   0.10385000
   10 1     3      0.00000      8.43158      8.87218      7.17472   #    H2   0.38525000   0.37505000   0.18625000
   11 1     3      0.00000      1.41821     10.62746      4.17386   #    H3   0.06480000   0.44925000   0.10835000
   12 1     3      0.00000     10.87296      3.06227      3.90806   #    H4   0.49680000   0.12945000   0.10145000
   13 1     3      0.00000      3.87820      0.06505     13.63101   #    H5   0.17720000   0.00275000   0.35385000
   14 1     3      0.00000      2.51142      2.95582     16.80522   #    H6   0.11475000   0.12495000   0.43625000
   15 1     3      0.00000      9.52479      1.20054     13.80436   #    H7   0.43520000   0.05075000   0.35835000
   16 1     3      0.00000      0.07004      8.76573     13.53856   #    H8   0.00320000   0.37055000   0.35145000
   17 1     3      0.00000      9.34970      5.84895      4.00051   #    H9   0.42720000   0.24725000   0.10385000
   18 1     3      0.00000      7.98292      2.95818      7.17472   #   H10   0.36475000   0.12505000   0.18625000
   19 1     3      0.00000      4.05329      4.71346      4.17386   #   H11   0.18520000   0.19925000   0.10835000
   20 1     3      0.00000      5.54154      8.97627      3.90806   #   H12   0.25320000   0.37945000   0.10145000
   21 1     3      0.00000      1.59330      5.97905     13.63101   #   H13   0.07280000   0.25275000   0.35385000
   22 1     3      0.00000      2.96008      8.86982     16.80522   #   H14   0.13525000   0.37495000   0.43625000
   23 1     3      0.00000      6.88971      7.11454     13.80436   #   H15   0.31480000   0.30075000   0.35835000
   24 1     3      0.00000      5.40146      2.85173     13.53856   #   H16   0.24680000   0.12055000   0.35145000
   25 1     1      0.00000      7.31758     11.13724      4.63997   #    C1   0.33435000   0.47080000   0.12045000
   26 1     1      0.00000      6.95537     10.14724      6.62578   #    C2   0.31780000   0.42895000   0.17200000
   27 1     1      0.00000      8.12737      9.42573      6.49288   #    C3   0.37135000   0.39845000   0.16855000
   28 1     1      0.00000      8.81787      9.55466      5.33144   #    C4   0.40290000   0.40390000   0.13840000
   29 1     1      0.00000      9.99643      8.66638      4.98475   #    C5   0.45675000   0.36635000   0.12940000
   30 1     1      0.00000      6.03506      9.93552      7.82382   #    C6   0.27575000   0.42000000   0.20310000
   31 1     1      0.00000      1.11290     11.50391      4.12378   #    C7   0.05085000   0.48630000   0.10705000
   32 1     1      0.00000      1.38538      1.84753      4.66501   #    C8   0.06330000   0.07810000   0.12110000
   33 1     1      0.00000      0.22761      2.18345      3.97354   #    C9   0.01040000   0.09230000   0.10315000
   34 1     1      0.00000     10.49981      1.15086      3.39571   #   C10   0.47975000   0.04865000   0.08815000
   35 1     1      0.00000      9.18884      1.37205      2.65031   #   C11   0.41985000   0.05800000   0.06880000
   36 1     1      0.00000      2.23018      2.94754      5.34300   #   C12   0.10190000   0.12460000   0.13870000
   37 1     1      0.00000      3.53240      1.42527      9.11238   #   C13   0.16140000   0.06025000   0.23655000
   38 1     1      0.00000      2.20064      0.80667      8.64048   #   C14   0.10055000   0.03410000   0.22430000
   39 1     1      0.00000      3.62542      0.69076     14.27047   #   C15   0.16565000   0.02920000   0.37045000
   40 1     1      0.00000      3.98763      1.68076     16.25628   #   C16   0.18220000   0.07105000   0.42200000
   41 1     1      0.00000      2.81563      2.40227     16.12338   #   C17   0.12865000   0.10155000   0.41855000
   42 1     1      0.00000      2.12513      2.27334     14.96194   #   C18   0.09710000   0.09610000   0.38840000
   43 1     1      0.00000      0.94657      3.16162     14.61525   #   C19   0.04325000   0.13365000   0.37940000
   44 1     1      0.00000      4.90794      1.89248     17.45432   #   C20   0.22425000   0.08000000   0.45310000
   45 1     1      0.00000      9.83010      0.32409     13.75428   #   C21   0.44915000   0.01370000   0.35705000
   46 1     1      0.00000      9.55762      9.98047     14.29551   #   C22   0.43670000   0.42190000   0.37110000
   47 1     1      0.00000     10.71539      9.64455     13.60404   #   C23   0.48960000   0.40770000   0.35315000
   48 1     1      0.00000      0.44319     10.67714     13.02621   #   C24   0.02025000   0.45135000   0.33815000
   49 1     1      0.00000      1.75416     10.45595     12.28081   #   C25   0.08015000   0.44200000   0.31880000
   50 1     1      0.00000      8.71282      8.88046     14.97350   #   C26   0.39810000   0.37540000   0.38870000
   51 1     1      0.00000      7.41060     10.40273     18.74288   #   C27   0.33860000   0.43975000   0.48655000
   52 1     1      0.00000      8.74236     11.02133     18.27098   #   C28   0.39945000   0.46590000   0.47430000
   53 1     1      0.00000      9.09692      5.22324      4.63997   #   C29   0.41565000   0.22080000   0.12045000
   54 1     1      0.00000      9.45913      4.23324      6.62578   #   C30   0.43220000   0.17895000   0.17200000
   55 1     1      0.00000      8.28713      3.51173      6.49288   #   C31   0.37865000   0.14845000   0.16855000
   56 1     1      0.00000      7.59663      3.64066      5.33144   #   C32   0.34710000   0.15390000   0.13840000
   57 1     1      0.00000      6.41807      2.75238      4.98475   #   C33   0.29325000   0.11635000   0.12940000
   58 1     1      0.00000     10.37944      4.02152      7.82382   #   C34   0.47425000   0.17000000   0.20310000
   59 1     1      0.00000      4.35860      5.58991      4.12378   #   C35   0.19915000   0.23630000   0.10705000
   60 1     1      0.00000      4.08612      7.76153      4.66501   #   C36   0.18670000   0.32810000   0.12110000
   61 1     1      0.00000      5.24389      8.09745      3.97354   #   C37   0.23960000   0.34230000   0.10315000
   62 1     1      0.00000      5.91469      7.06486      3.39571   #   C38   0.27025000   0.29865000   0.08815000
   63 1     1      0.00000      7.22566      7.28605      2.65031   #   C39   0.33015000   0.30800000   0.06880000
   64 1     1      0.00000      3.24132      8.86154      5.34300   #   C40   0.14810000   0.37460000   0.13870000
   65 1     1      0.00000      1.93910      7.33927      9.11238   #   C41   0.08860000   0.31025000   0.23655000
   66 1     1      0.00000      3.27086      6.72067      8.64048   #   C42   0.14945000   0.28410000   0.22430000
   67 1     1      0.00000      1.84608      6.60476     14.27047   #   C43   0.08435000   0.27920000   0.37045000
   68 1     1      0.00000      1.48387      7.59476     16.25628   #   C44   0.06780000   0.32105000   0.42200000
   69 1     1      0.00000      2.65587      8.31627     16.12338   #   C45   0.12135000   0.35155000   0.41855000
   70 1     1      0.00000      3.34637      8.18734     14.96194   #   C46   0.15290000   0.34610000   0.38840000
   71 1     1      0.00000      4.52493      9.07562     14.61525   #   C47   0.20675000   0.38365000   0.37940000
   72 1     1      0.00000      0.56356      7.80648     17.45432   #   C48   0.02575000   0.33000000   0.45310000
   73 1     1      0.00000      6.58440      6.23809     13.75428   #   C49   0.30085000   0.26370000   0.35705000
   74 1     1      0.00000      6.85688      4.06647     14.29551   #   C50   0.31330000   0.17190000   0.37110000
   75 1     1      0.00000      5.69911      3.73055     13.60404   #   C51   0.26040000   0.15770000   0.35315000
   76 1     1      0.00000      5.02831      4.76314     13.02621   #   C52   0.22975000   0.20135000   0.33815000
   77 1     1      0.00000      3.71734      4.54195     12.28081   #   C53   0.16985000   0.19200000   0.31880000
   78 1     1      0.00000      7.70168      2.96646     14.97350   #   C54   0.35190000   0.12540000   0.38870000
   79 1     1      0.00000      9.00390      4.48873     18.74288   #   C55   0.41140000   0.18975000   0.48655000
   80 1     1      0.00000      7.67214      5.10733     18.27098   #   C56   0.35055000   0.21590000   0.47430000
   81 1     4      0.00000      8.42502     10.45477      4.39729   #    N1   0.38495000   0.44195000   0.11415000
   82 1     4      0.00000      6.53735     11.01896      5.69548   #    N2   0.29870000   0.46580000   0.14785000
   83 1     4      0.00000     10.93096     11.71800      3.41498   #    N3   0.49945000   0.49535000   0.08865000
   84 1     4      0.00000      1.83295      0.60441      4.76325   #    N4   0.08375000   0.02555000   0.12365000
   85 1     4      0.00000      2.51798      1.37323     14.02779   #    N5   0.11505000   0.05805000   0.36415000
   86 1     4      0.00000      4.40565      0.80904     15.32598   #    N6   0.20130000   0.03420000   0.39785000
   87 1     4      0.00000      0.01204      0.11000     13.04548   #    N7   0.00055000   0.00465000   0.33865000
   88 1     4      0.00000      9.11005     11.22359     14.39375   #    N8   0.41625000   0.47445000   0.37365000
   89 1     4      0.00000      7.98948      4.54077      4.39729   #    N9   0.36505000   0.19195000   0.11415000
   90 1     4      0.00000      9.87715      5.10496      5.69548   #   N10   0.45130000   0.21580000   0.14785000
   91 1     4      0.00000      5.48354      5.80400      3.41498   #   N11   0.25055000   0.24535000   0.08865000
   92 1     4      0.00000      3.63855      6.51841      4.76325   #   N12   0.16625000   0.27555000   0.12365000
   93 1     4      0.00000      2.95352      7.28723     14.02779   #   N13   0.13495000   0.30805000   0.36415000
   94 1     4      0.00000      1.06585      6.72304     15.32598   #   N14   0.04870000   0.28420000   0.39785000
   95 1     4      0.00000      5.45946      6.02400     13.04548   #   N15   0.24945000   0.25465000   0.33865000
   96 1     4      0.00000      7.30445      5.30959     14.39375   #   N16   0.33375000   0.22445000   0.37365000
   97 1     6      0.00000     10.44400      8.75863      3.82138   #    O1   0.47720000   0.37025000   0.09920000
   98 1     6      0.00000     10.40460      7.88533      5.87460   #    O2   0.47540000   0.33333333   0.15250000
   99 1     6      0.00000      4.96703     10.60380      7.83923   #    O3   0.22695000   0.44825000   0.20350000
  100 1     5      0.00000      6.40603      9.09810      8.65589   #    O4   0.29270000   0.38460000   0.22470000
  101 1     6      0.00000      8.69969      0.41753      2.00892   #    O5   0.39750000   0.01765000   0.05215000
  102 1     6      0.00000      8.67233      2.50399      2.80825   #    O6   0.39625000   0.10585000   0.07290000
  103 1     6      0.00000      3.28837      2.57141      5.90350   #    O7   0.15025000   0.10870000   0.15325000
  104 1     6      0.00000      1.82201      4.12324      5.26981   #    O8   0.08325000   0.17430000   0.13680000
  105 1     6      0.00000      4.46693      1.46785      8.26297   #    O9   0.20410000   0.06205000   0.21450000
  106 1     6      0.00000      3.57398      1.81323     10.29886   #   O10   0.16330000   0.07665000   0.26735000
  107 1     6      0.00000      2.24003      0.17269      7.54839   #   O11   0.10235000   0.00730000   0.19595000
  108 1     6      0.00000      1.20154      0.96753      9.36855   #   O12   0.05490000   0.04090000   0.24320000
  109 1     6      0.00000      0.49900      3.06937     13.45188   #   O13   0.02280000   0.12975000   0.34920000
  110 1     6      0.00000      0.53840      3.94267     15.50511   #   O14   0.02460000   0.16666667   0.40250000
  111 1     6      0.00000      5.97597      1.22420     17.46973   #   O15   0.27305000   0.05175000   0.45350000
  112 1     5      0.00000      4.53697      2.72990     18.28639   #   O16   0.20730000   0.11540000   0.47470000
  113 1     6      0.00000      2.24331     11.41047     11.63942   #   O17   0.10250000   0.48235000   0.30215000
  114 1     6      0.00000      2.27067      9.32401     12.43875   #   O18   0.10375000   0.39415000   0.32290000
  115 1     6      0.00000      7.65463      9.25659     15.53400   #   O19   0.34975000   0.39130000   0.40325000
  116 1     6      0.00000      9.12099      7.70476     14.90031   #   O20   0.41675000   0.32570000   0.38680000
  117 1     6      0.00000      6.47607     10.36015     17.89347   #   O21   0.29590000   0.43795000   0.46450000
  118 1     6      0.00000      7.36902     10.01477      0.66836   #   O22   0.33670000   0.42335000   0.01735000
  119 1     6      0.00000      8.70297     11.65531     17.17889   #   O23   0.39765000   0.49270000   0.44595000
  120 1     6      0.00000      9.74146     10.86047     18.99905   #   O24   0.44510000   0.45910000   0.49320000
  121 1     6      0.00000      5.97050      2.84463      3.82138   #   O25   0.27280000   0.12025000   0.09920000
  122 1     6      0.00000      6.00990      1.97173      5.87460   #   O26   0.27460000   0.08335000   0.15250000
  123 1     6      0.00000      0.50447      4.68980      7.83923   #   O27   0.02305000   0.19825000   0.20350000
  124 1     5      0.00000     10.00847      3.18410      8.65589   #   O28   0.45730000   0.13460000   0.22470000
  125 1     6      0.00000      7.71481      6.33153      2.00892   #   O29   0.35250000   0.26765000   0.05215000
  126 1     6      0.00000      7.74217      8.41799      2.80825   #   O30   0.35375000   0.35585000   0.07290000
  127 1     6      0.00000      2.18313      8.48541      5.90350   #   O31   0.09975000   0.35870000   0.15325000
  128 1     6      0.00000      3.64949     10.03724      5.26981   #   O32   0.16675000   0.42430000   0.13680000
  129 1     6      0.00000      1.00457      7.38185      8.26297   #   O33   0.04590000   0.31205000   0.21450000
  130 1     6      0.00000      1.89752      7.72723     10.29886   #   O34   0.08670000   0.32665000   0.26735000
  131 1     6      0.00000      3.23147      6.08669      7.54839   #   O35   0.14765000   0.25730000   0.19595000
  132 1     6      0.00000      4.26996      6.88153      9.36855   #   O36   0.19510000   0.29090000   0.24320000
  133 1     6      0.00000      4.97250      8.98337     13.45188   #   O37   0.22720000   0.37975000   0.34920000
  134 1     6      0.00000      4.93310      9.85627     15.50511   #   O38   0.22540000   0.41665000   0.40250000
  135 1     6      0.00000     10.43853      7.13820     17.46973   #   O39   0.47695000   0.30175000   0.45350000
  136 1     5      0.00000      0.93453      8.64390     18.28639   #   O40   0.04270000   0.36540000   0.47470000
  137 1     6      0.00000      3.22818      5.49647     11.63942   #   O41   0.14750000   0.23235000   0.30215000
  138 1     6      0.00000      3.20083      3.41001     12.43875   #   O42   0.14625000   0.14415000   0.32290000
  139 1     6      0.00000      8.75987      3.34259     15.53400   #   O43   0.40025000   0.14130000   0.40325000
  140 1     6      0.00000      7.29351      1.79076     14.90031   #   O44   0.33325000   0.07570000   0.38680000
  141 1     6      0.00000      9.93843      4.44615     17.89347   #   O45   0.45410000   0.18795000   0.46450000
  142 1     6      0.00000      9.04548      4.10077      0.66836   #   O46   0.41330000   0.17335000   0.01735000
  143 1     6      0.00000      7.71153      5.74131     17.17889   #   O47   0.35235000   0.24270000   0.44595000
  144 1     6      0.00000      6.67304      4.94647     18.99905   #   O48   0.30490000   0.20910000   0.49320000
  145 1     2      0.00000      9.43779      9.96497     21.24508   #   Eu1   0.43122500   0.42124500   0.55150500
  146 1     2      0.00000      4.16994      0.33674     25.37560   #   Eu2   0.19053000   0.01423500   0.65873000
  147 1     2      0.00000      1.50521      1.86303     30.87558   #   Eu3   0.06877500   0.07875500   0.80150500
  148 1     2      0.00000      6.77306     11.49126     35.00610   #   Eu4   0.30947000   0.48576500   0.90873000
  149 1     2      0.00000      6.97671      4.05097     21.24508   #   Eu5   0.31877500   0.17124500   0.55150500
  150 1     2      0.00000      1.30156      6.25074     25.37560   #   Eu6   0.05947000   0.26423500   0.65873000
  151 1     2      0.00000      3.96629      7.77703     30.87558   #   Eu7   0.18122500   0.32875500   0.80150500
  152 1     2      0.00000      9.64144      5.57726     35.00610   #   Eu8   0.44053000   0.23576500   0.90873000
  153 1     3      0.00000      7.06480     11.76295     23.26151   #    H1   0.32280000   0.49725000   0.60385000
  154 1     3      0.00000      8.43158      8.87218     26.43572   #    H2   0.38525000   0.37505000   0.68625000
  155 1     3      0.00000      1.41821     10.62746     23.43486   #    H3   0.06480000   0.44925000   0.60835000
  156 1     3      0.00000     10.87296      3.06227     23.16906   #    H4   0.49680000   0.12945000   0.60145000
  157 1     3      0.00000      3.87820      0.06505     32.89201   #    H5   0.17720000   0.00275000   0.85385000
  158 1     3      0.00000      2.51142      2.95582     36.06622   #    H6   0.11475000   0.12495000   0.93625000
  159 1     3      0.00000      9.52479      1.20054     33.06536   #    H7   0.43520000   0.05075000   0.85835000
  160 1     3      0.00000      0.07004      8.76573     32.79956   #    H8   0.00320000   0.37055000   0.85145000
  161 1     3      0.00000      9.34970      5.84895     23.26151   #    H9   0.42720000   0.24725000   0.60385000
  162 1     3      0.00000      7.98292      2.95818     26.43572   #   H10   0.36475000   0.12505000   0.68625000
  163 1     3      0.00000      4.05329      4.71346     23.43486   #   H11   0.18520000   0.19925000   0.60835000
  164 1     3      0.00000      5.54154      8.97627     23.16906   #   H12   0.25320000   0.37945000   0.60145000
  165 1     3      0.00000      1.59330      5.97905     32.89201   #   H13   0.07280000   0.25275000   0.85385000
  166 1     3      0.00000      2.96008      8.86982     36.06622   #   H14   0.13525000   0.37495000   0.93625000
  167 1     3      0.00000      6.88971      7.11454     33.06536   #   H15   0.31480000   0.30075000   0.85835000
  168 1     3      0.00000      5.40146      2.85173     32.79956   #   H16   0.24680000   0.12055000   0.85145000
  169 1     1      0.00000      7.31758     11.13724     23.90097   #    C1   0.33435000   0.47080000   0.62045000
  170 1     1      0.00000      6.95537     10.14724     25.88678   #    C2   0.31780000   0.42895000   0.67200000
  171 1     1      0.00000      8.12737      9.42573     25.75388   #    C3   0.37135000   0.39845000   0.66855000
  172 1     1      0.00000      8.81787      9.55466     24.59244   #    C4   0.40290000   0.40390000   0.63840000
  173 1     1      0.00000      9.99643      8.66638     24.24575   #    C5   0.45675000   0.36635000   0.62940000
  174 1     1      0.00000      6.03506      9.93552     27.08482   #    C6   0.27575000   0.42000000   0.70310000
  175 1     1      0.00000      1.11290     11.50391     23.38478   #    C7   0.05085000   0.48630000   0.60705000
  176 1     1      0.00000      1.38538      1.84753     23.92601   #    C8   0.06330000   0.07810000   0.62110000
  177 1     1      0.00000      0.22761      2.18345     23.23454   #    C9   0.01040000   0.09230000   0.60315000
  178 1     1      0.00000     10.49981      1.15086     22.65671   #   C10   0.47975000   0.04865000   0.58815000
  179 1     1      0.00000      9.18884      1.37205     21.91131   #   C11   0.41985000   0.05800000   0.56880000
  180 1     1      0.00000      2.23018      2.94754     24.60400   #   C12   0.10190000   0.12460000   0.63870000
  181 1     1      0.00000      3.53240      1.42527     28.37338   #   C13   0.16140000   0.06025000   0.73655000
  182 1     1      0.00000      2.20064      0.80667     27.90148   #   C14   0.10055000   0.03410000   0.72430000
  183 1     1      0.00000      3.62542      0.69076     33.53147   #   C15   0.16565000   0.02920000   0.87045000
  184 1     1      0.00000      3.98763      1.68076     35.51728   #   C16   0.18220000   0.07105000   0.92200000
  185 1     1      0.00000      2.81563      2.40227     35.38438   #   C17   0.12865000   0.10155000   0.91855000
  186 1     1      0.00000      2.12513      2.27334     34.22294   #   C18   0.09710000   0.09610000   0.88840000
  187 1     1      0.00000      0.94657      3.16162     33.87625   #   C19   0.04325000   0.13365000   0.87940000
  188 1     1      0.00000      4.90794      1.89248     36.71532   #   C20   0.22425000   0.08000000   0.95310000
  189 1     1      0.00000      9.83010      0.32409     33.01528   #   C21   0.44915000   0.01370000   0.85705000
  190 1     1      0.00000      9.55762      9.98047     33.55651   #   C22   0.43670000   0.42190000   0.87110000
  191 1     1      0.00000     10.71539      9.64455     32.86504   #   C23   0.48960000   0.40770000   0.85315000
  192 1     1      0.00000      0.44319     10.67714     32.28721   #   C24   0.02025000   0.45135000   0.83815000
  193 1     1      0.00000      1.75416     10.45595     31.54181   #   C25   0.08015000   0.44200000   0.81880000
  194 1     1      0.00000      8.71282      8.88046     34.23450   #   C26   0.39810000   0.37540000   0.88870000
  195 1     1      0.00000      7.41060     10.40273     38.00388   #   C27   0.33860000   0.43975000   0.98655000
  196 1     1      0.00000      8.74236     11.02133     37.53198   #   C28   0.39945000   0.46590000   0.97430000
  197 1     1      0.00000      9.09692      5.22324     23.90097   #   C29   0.41565000   0.22080000   0.62045000
  198 1     1      0.00000      9.45913      4.23324     25.88678   #   C30   0.43220000   0.17895000   0.67200000
  199 1     1      0.00000      8.28713      3.51173     25.75388   #   C31   0.37865000   0.14845000   0.66855000
  200 1     1      0.00000      7.59663      3.64066     24.59244   #   C32   0.34710000   0.15390000   0.63840000
  201 1     1      0.00000      6.41807      2.75238     24.24575   #   C33   0.29325000   0.11635000   0.62940000
  202 1     1      0.00000     10.37944      4.02152     27.08482   #   C34   0.47425000   0.17000000   0.70310000
  203 1     1      0.00000      4.35860      5.58991     23.38478   #   C35   0.19915000   0.23630000   0.60705000
  204 1     1      0.00000      4.08612      7.76153     23.92601   #   C36   0.18670000   0.32810000   0.62110000
  205 1     1      0.00000      5.24389      8.09745     23.23454   #   C37   0.23960000   0.34230000   0.60315000
  206 1     1      0.00000      5.91469      7.06486     22.65671   #   C38   0.27025000   0.29865000   0.58815000
  207 1     1      0.00000      7.22566      7.28605     21.91131   #   C39   0.33015000   0.30800000   0.56880000
  208 1     1      0.00000      3.24132      8.86154     24.60400   #   C40   0.14810000   0.37460000   0.63870000
  209 1     1      0.00000      1.93910      7.33927     28.37338   #   C41   0.08860000   0.31025000   0.73655000
  210 1     1      0.00000      3.27086      6.72067     27.90148   #   C42   0.14945000   0.28410000   0.72430000
  211 1     1      0.00000      1.84608      6.60476     33.53147   #   C43   0.08435000   0.27920000   0.87045000
  212 1     1      0.00000      1.48387      7.59476     35.51728   #   C44   0.06780000   0.32105000   0.92200000
  213 1     1      0.00000      2.65587      8.31627     35.38438   #   C45   0.12135000   0.35155000   0.91855000
  214 1     1      0.00000      3.34637      8.18734     34.22294   #   C46   0.15290000   0.34610000   0.88840000
  215 1     1      0.00000      4.52493      9.07562     33.87625   #   C47   0.20675000   0.38365000   0.87940000
  216 1     1      0.00000      0.56356      7.80648     36.71532   #   C48   0.02575000   0.33000000   0.95310000
  217 1     1      0.00000      6.58440      6.23809     33.01528   #   C49   0.30085000   0.26370000   0.85705000
  218 1     1      0.00000      6.85688      4.06647     33.55651   #   C50   0.31330000   0.17190000   0.87110000
  219 1     1      0.00000      5.69911      3.73055     32.86504   #   C51   0.26040000   0.15770000   0.85315000
  220 1     1      0.00000      5.02831      4.76314     32.28721   #   C52   0.22975000   0.20135000   0.83815000
  221 1     1      0.00000      3.71734      4.54195     31.54181   #   C53   0.16985000   0.19200000   0.81880000
  222 1     1      0.00000      7.70168      2.96646     34.23450   #   C54   0.35190000   0.12540000   0.88870000
  223 1     1      0.00000      9.00390      4.48873     38.00388   #   C55   0.41140000   0.18975000   0.98655000
  224 1     1      0.00000      7.67214      5.10733     37.53198   #   C56   0.35055000   0.21590000   0.97430000
  225 1     4      0.00000      8.42502     10.45477     23.65829   #    N1   0.38495000   0.44195000   0.61415000
  226 1     4      0.00000      6.53735     11.01896     24.95648   #    N2   0.29870000   0.46580000   0.64785000
  227 1     4      0.00000     10.93096     11.71800     22.67598   #    N3   0.49945000   0.49535000   0.58865000
  228 1     4      0.00000      1.83295      0.60441     24.02425   #    N4   0.08375000   0.02555000   0.62365000
  229 1     4      0.00000      2.51798      1.37323     33.28879   #    N5   0.11505000   0.05805000   0.86415000
  230 1     4      0.00000      4.40565      0.80904     34.58698   #    N6   0.20130000   0.03420000   0.89785000
  231 1     4      0.00000      0.01204      0.11000     32.30648   #    N7   0.00055000   0.00465000   0.83865000
  232 1     4      0.00000      9.11005     11.22359     33.65475   #    N8   0.41625000   0.47445000   0.87365000
  233 1     4      0.00000      7.98948      4.54077     23.65829   #    N9   0.36505000   0.19195000   0.61415000