Created by Ryther's code on 2025-08-05 19:07:06.025368, modified by xyan11@uic.edu. 

    592 atoms
    704 bonds
    1472 angles
    1304 dihedrals
    224 impropers

    10 atom types
    20 bond types
    42 angle types
    10 dihedral types
    2 improper types

0.00000000 38.50278934 xlo xhi
0.00000000 20.60053443 ylo yhi
0.00000000 20.53816482 zlo zhi
-0.02331801 0.01576704 1.60199174 xy xz yz 

Masses 

    1    12.0107  #   C
    2    12.0107  #   C
    3    1.00794  #   H
    4    14.0067  #   N
    5    14.0067  #   N
    6    15.9994  #   O
    7    15.9994  #   O
    8    15.9994  #   O
    9    15.9994  #   O
   10      65.38  #  Zn

Pair Coeffs

    1       0.10500      3.43085  #  C_3 C_3
    2       0.10500      3.43085  #  C_R C_R
    3       0.04400      2.57113  #  H_ H_
    4       0.06900      3.26069  #  N_2 N_2
    5       0.06900      3.26069  #  N_3 N_3
    6       0.06000      3.11815  #  O_1 O_1
    7       0.06000      3.11815  #  O_2_M O_2_M
    8       0.06000      3.11815  #  O_3 O_3
    9       0.06000      3.11815  #  O_3_M O_3_M
    10      0.12400      2.46155  #  Zn4+2 Zn4+2

Bond Coeffs

    1     104.44141      2.12294  #  O_2_M Zn4+2 bond order=0.5
    2     100.76218      2.14847  #  O_3_M Zn4+2 bond order=0.5
    3      48.90184      1.84943  #  H_ Zn4+2 bond order=0.5
    4     103.61325      2.20128  #  N_2 Zn4+2 bond order=0.5
    5     357.44038      1.08142  #  C_R H_ bond order=1.0
    6     331.06939      1.10940  #  C_3 H_ bond order=1.0
    7      97.41657      1.20000  #  H_ H_ bond order=1.0
    8     527.90376      1.04442  #  H_ N_3 bond order=1.0
    9     559.99521      0.99025  #  H_ O_3_M bond order=1.0
    10    462.65505      1.37926  #  C_R C_R bond order=1.5
    11    931.53598      1.20133  #  C_R N_2 bond order=3.0
    12    523.75938      1.32339  #  C_R C_R bond order=2.0
    13    369.94394      1.48600  #  C_3 C_R bond order=1.0
    14    572.46041      1.36631  #  C_R O_3 bond order=1.0
    15    391.66951      1.45800  #  C_R C_R bond order=1.0
    16    539.20166      1.39385  #  C_3 O_3 bond order=1.0
    17    560.26893      1.42319  #  C_R N_3 bond order=1.0
    18    706.67500      1.27367  #  C_R O_1 bond order=1.5
    19    678.02790      1.29140  #  C_R O_3_M bond order=1.5
    20    714.55744      1.26901  #  C_R O_2_M bond order=1.5

Angle Coeffs

    1  cosine/periodic         95.61832            1            4  #  O_2_M Zn4+2 O_3_M
    2  cosine/periodic         36.20045            1            4  #  H_ Zn4+2 O_2_M
    3  cosine/periodic         97.36576            1            4  #  O_2_M Zn4+2 O_2_M
    4  cosine/periodic        101.82219            1            4  #  N_2 Zn4+2 O_2_M
    5  cosine/periodic         35.40556            1            4  #  H_ Zn4+2 O_3_M
    6  cosine/periodic        100.10309            1            4  #  N_2 Zn4+2 O_3_M
    7  cosine/periodic         14.11273            1            4  #  H_ Zn4+2 H_
    8  cosine/periodic         37.39156            1            4  #  H_ Zn4+2 N_2
    9  cosine/periodic         11.23300            1            1  #  Zn4+2 H_ Zn4+2
    10 cosine/periodic         10.90893            1            1  #  H_ H_ Zn4+2
    11 cosine/periodic        164.23630            1            1  #  C_R H_ O_3_M
    12 cosine/periodic         12.17707            1            1  #  H_ H_ H_
    13 cosine/periodic        179.74893           -1            3  #  C_R C_R N_2
    14 cosine/periodic        118.27773           -1            3  #  C_R C_R C_R
    15 cosine/periodic         99.13715           -1            3  #  C_3 C_R C_R
    16 cosine/periodic        104.90215           -1            3  #  C_3 C_R C_R
    17 cosine/periodic         61.73740           -1            3  #  C_R C_R H_
    18 cosine/periodic         57.28902           -1            3  #  C_R C_R H_
    19 cosine/periodic        111.29751           -1            3  #  C_R C_R C_R
    20 cosine/periodic        135.76992           -1            3  #  C_R C_R O_3
    21 cosine/periodic        102.18328           -1            3  #  C_R C_R C_R
    22 cosine/periodic        124.56037           -1            3  #  C_R C_R O_3
    23 fourier                 75.49653      0.34375      0.37500      0.28125  #  H_ C_3 H_
    24 fourier                121.77380      0.34375      0.37500      0.28125  #  C_R C_3 H_
    25 fourier                165.75867      0.34375      0.37500      0.28125  #  H_ C_3 O_3
    26 fourier                298.92298      0.34375      0.37500      0.28125  #  C_R C_3 O_3
    27 cosine/periodic        141.17366           -1            3  #  C_R C_R N_3
    28 cosine/periodic        189.84281           -1            3  #  N_3 C_R O_1
    29 cosine/periodic        179.31629           -1            3  #  N_3 C_R N_3
    30 cosine/periodic        134.57449           -1            3  #  C_R C_R O_3_M
    31 cosine/periodic        137.71425           -1            3  #  C_R C_R O_2_M
    32 cosine/periodic        201.38050           -1            3  #  O_2_M C_R O_3_M
    33 cosine/periodic        206.77843           -1            3  #  O_2_M C_R O_2_M
    34 fourier                 84.89470      0.36401      0.41847      0.28800  #  C_R N_2 Zn4+2
    35 fourier                150.57460      0.31751      0.31322      0.27250  #  C_R N_3 H_
    36 fourier                276.50199      0.31751      0.31322      0.27250  #  C_R N_3 C_R
    37 fourier                 97.01717      0.31751      0.31322      0.27250  #  H_ N_3 H_
    38 fourier                320.94891      0.30023      0.26733      0.26675  #  C_3 O_3 C_R
    39 cosine/periodic         37.72922           -1            3  #  C_R O_2_M Zn4+2
    40 fourier                 41.31289      0.30023      0.26733      0.26675  #  H_ O_3_M Zn4+2
    41 fourier                 99.02913      0.30023      0.26733      0.26675  #  C_R O_3_M Zn4+2
    42 fourier                203.65891      0.30023      0.26733      0.26675  #  C_R O_3_M H_

Dihedral Coeffs

    1       6.73711           -1            2  #  X C_R C_R X bond order=1.5
    2      27.96100           -1            2  #  X C_R N_2 X bond order=3.0
    3       4.87169           -1            2  #  X C_R C_R X bond order=2.0
    4       0.16667           -1            6  #  X C_3 C_R X bond order=1.0
    5       0.23717           -1            2  #  X C_R O_3 X bond order=1.0
    6       1.25000           -1            2  #  X C_R C_R X bond order=1.0
    7       0.03255            1            3  #  X C_3 O_3 X bond order=1.0
    8       0.25000           -1            6  #  X C_R N_3 X bond order=1.0
    9       0.31957           -1            2  #  X C_R O_3_M X bond order=1.5
    10      6.73711           -1            2  #  X C_R O_2_M X bond order=1.5

Improper Coeffs

    1       2.00000      1.00000     -1.00000      0.00000            1  #  C_R X X X O_2 present=False
    2      16.66667      1.00000     -1.00000      0.00000            1  #  C_R X X X O_2 present=True

Atoms # a, b, c, alpha, beta, gamma: 38.5027893419, 20.6005476258, 20.6005543701, 85.5399722078, 89.9561475353, 90.0648538162 $$$atoms$$$

    1 1     10     0.00000     14.58453      4.82011      5.81365   #   Zn1   0.37880387   0.21196725   0.28306565
    2 1     10     0.00000     17.51492      4.82449      5.81070   #   Zn2   0.45491258   0.21219134   0.28292224
    3 1     3      0.00000      9.89884      4.07854      3.78481   #    H1   0.25712981   0.18365189   0.18428157
    4 1     3      0.00000      7.40270      3.85779      3.76684   #    H2   0.19229356   0.17300415   0.18340683
    5 1     3      0.00000      5.52802      4.62293      7.84232   #    H3   0.14353619   0.19471433   0.38184121
    6 1     3      0.00000      3.07648      4.66221      7.89298   #    H4   0.07986429   0.19642933   0.38430806
    7 1     3      0.00000      2.97883      4.92692      3.59549   #    H5   0.07743157   0.22555114   0.17506367
    8 1     3      0.00000      5.42179      4.91580      3.52813   #    H6   0.14088156   0.22526629   0.17178400
    9 1     3      0.00000      9.65033      5.86573      7.58843   #    H7   0.25064350   0.25600434   0.36947940
   10 1     3      0.00000      9.32724      4.09750      7.71695   #    H8   0.24219725   0.16968339   0.37573691
   11 1     3      0.00000     15.91355      4.27091      6.32851   #    H9   0.41329381   0.18335826   0.30813430
   12 1     3      0.00000     16.44662      1.81876      3.90425   #   H10   0.42712061   0.07350440   0.19009750
   13 1     3      0.00000     16.47375      7.83022      3.90340   #   H11   0.42800201   0.36531818   0.19005610
   14 1     3      0.00000     15.65443      9.97207      7.54681   #   H12   0.40670462   0.45549363   0.36745284
   15 1     3      0.00000     15.90978      5.37338      6.32634   #   H13   0.41322838   0.23688306   0.30802863
   16 1     3      0.00000     16.49186      9.12848      1.79100   #   H14   0.42855754   0.43633721   0.08720331
   17 1     3      0.00000     17.19942     11.03312      9.96437   #   H15   0.44680852   0.49784572   0.48516360
   18 1     3      0.00000     18.39666      2.08479     10.04059   #   H16   0.47763882   0.06318356   0.48887491
   19 1     3      0.00000     16.57919      4.84710      5.25692   #   H17   0.43062285   0.21538544   0.25595858
   20 1     3      0.00000     14.13202      4.23499      2.84635   #   H18   0.36710005   0.19479957   0.13858828
   21 1     3      0.00000     14.12304      4.73349      8.83716   #   H19   0.36674828   0.19631435   0.43027972
   22 1     3      0.00000     17.79933      4.71401      0.65357   #   H20   0.46241073   0.22635464   0.03182233
   23 1     3      0.00000     16.57898      4.92969      6.35630   #   H21   0.43059524   0.21523183   0.30948743
   24 1     3      0.00000     12.16012      4.05866     10.19348   #   H22   0.31571697   0.15842132   0.49631902
   25 1     3      0.00000      9.94776      3.20309      1.03655   #   H23   0.25843571   0.15156115   0.05046935
   26 1     3      0.00000      9.57184      4.43298      2.29560   #   H24   0.24868050   0.20649588   0.11177261
   27 1     2      0.00000     11.42808      4.77926      5.80162   #    C1   0.29682318   0.21002992   0.28247997
   28 1     2      0.00000      9.98856      4.73234      5.78487   #    C2   0.25943488   0.20781570   0.28166421
   29 1     2      0.00000      9.34572      4.33992      4.67963   #    C3   0.24275191   0.19295172   0.22785029
   30 1     2      0.00000      7.87700      4.26934      4.64733   #    C4   0.20460482   0.18964784   0.22627786
   31 1     2      0.00000      7.16030      4.72695      5.68546   #    C5   0.18598089   0.20793070   0.27682403
   32 1     2      0.00000      5.67503      4.73934      5.68249   #    C6   0.14740582   0.20854336   0.27667966
   33 1     2      0.00000      4.98564      4.68947      6.90720   #    C7   0.12947198   0.20148502   0.33631067
   34 1     2      0.00000      3.58803      4.70897      6.93899   #    C8   0.09317307   0.20231148   0.33785836
   35 1     2      0.00000      2.85919      4.78825      5.74755   #    C9   0.07427227   0.21067119   0.27984741
   36 1     2      0.00000      1.42023      4.81006      5.78145   #   C10   0.03689938   0.21160135   0.28149766
   37 1     2      0.00000      3.53342      4.85330      4.52342   #   C11   0.09181249   0.21846361   0.22024478
   38 1     2      0.00000      4.93121      4.83293      4.48846   #   C12   0.12811639   0.21760710   0.21854254
   39 1     1      0.00000      9.22623      4.98647      7.05912   #   C13   0.23961470   0.21532731   0.34370725
   40 1     2      0.00000     16.05560      0.89438      5.81229   #   C14   0.41689556   0.02140800   0.28299929
   41 1     2      0.00000     16.36771      0.88386      4.44293   #   C15   0.42503183   0.02608236   0.21632543
   42 1     2      0.00000     16.53300      9.97087      3.75701   #   C16   0.42960698   0.46978513   0.18292835
   43 1     2      0.00000     16.35571      8.76196      4.44308   #   C17   0.42495161   0.40850380   0.21633281
   44 1     2      0.00000     16.04397      8.75023      5.81207   #   C18   0.41682421   0.40275093   0.28298888
   45 1     2      0.00000     15.89478      9.97229      6.49059   #   C19   0.41297035   0.45950364   0.31602599
   46 1     2      0.00000     17.68427      0.59871      1.68638   #   C20   0.45927857   0.02267763   0.08210948
   47 1     2      0.00000     16.04636      4.51816      1.89604   #   C21   0.41684904   0.21214336   0.09231799
   48 1     2      0.00000     14.66038      4.29090      1.90393   #   C22   0.38084520   0.20108156   0.09270204
   49 1     2      0.00000     13.95795      4.10088      0.70215   #   C23   0.36262295   0.19640831   0.03418755
   50 1     2      0.00000     14.66771      4.90074      9.75840   #   C24   0.38087900   0.20094509   0.47513486
   51 1     2      0.00000     16.05321      5.12645      9.72832   #   C25   0.41687074   0.21201554   0.47367018
   52 1     2      0.00000     16.73044      4.53901      0.66799   #   C26   0.43464395   0.21780523   0.03252453
   53 1     2      0.00000     11.61078      4.44812      1.60649   #   C27   0.30165197   0.20983973   0.07821994
   54 1     2      0.00000     16.05196      4.95818      8.24785   #   C28   0.41686634   0.20945301   0.40158653
   55 1     2      0.00000     16.04751      4.68644      3.37650   #   C29   0.41685094   0.21470640   0.16440142
   56 1     2      0.00000     16.04605      7.26118      5.75897   #   C30   0.41683576   0.33066984   0.28040339
   57 1     2      0.00000     16.05342      2.38342      5.86538   #   C31   0.41688149   0.09348879   0.28558460
   58 1     4      0.00000     12.58462      4.81712      5.81555   #    N1   0.32686184   0.21181480   0.28315828
   59 1     4      0.00000      0.26343      4.82759      5.80869   #    N2   0.00685460   0.21234911   0.28282429
   60 1     5      0.00000     16.83158      9.94342      2.35030   #    N3   0.43739219   0.47377871   0.11443591
   61 1     5      0.00000     17.76676      0.60348      0.26201   #    N4   0.46145267   0.02830253   0.01275727
   62 1     5      0.00000     12.54247      3.84576      0.69526   #    N5   0.32585245   0.18404990   0.03385206
   63 1     5      0.00000     10.26042      3.98937      1.64801   #    N6   0.26656582   0.18741359   0.08024133
   64 1     8      0.00000      7.83605      5.22144      6.81186   #    O1   0.20352113   0.22766948   0.33166862
   65 1     6      0.00000     18.38205      1.41238      2.34936   #    O2   0.47741063   0.05966488   0.11438999
   66 1     6      0.00000     11.96205      5.40569      2.34688   #    O3   0.31078687   0.25351911   0.11426933
   67 1     7      0.00000     17.15996      4.74452      3.87224   #    O4   0.44573444   0.21564879   0.18853886
   68 1     7      0.00000     17.16361      4.90342      7.74987   #    O5   0.44574759   0.20868021   0.37734007
   69 1     7      0.00000     17.15882      6.76312      5.74008   #    O6   0.44572252   0.30656434   0.27948382
   70 1     7      0.00000     17.16475      2.88482      5.88203   #    O7   0.44575949   0.11776467   0.28639505
   71 1     7      0.00000     14.93469      6.75978      5.74232   #    O8   0.38795693   0.30639392   0.27959284
   72 1     9      0.00000     14.93948      4.90010      7.75211   #    O9   0.38798201   0.20851058   0.37744905
   73 1     7      0.00000     14.93583      4.74120      3.87446   #   O10   0.38796885   0.21547913   0.18864706
   74 1     7      0.00000     14.94062      2.88150      5.88425   #   O11   0.38799391   0.11759501   0.28650330
   75 1     10     0.00000     14.59241      5.62110     16.08273   #   Zn1   0.37880387   0.21196725   0.78306565
   76 1     10     0.00000     17.52280      5.62549     16.07979   #   Zn2   0.45491258   0.21219134   0.78292224
   77 1     3      0.00000      9.90672      4.87954     14.05389   #    H1   0.25712981   0.18365189   0.68428157
   78 1     3      0.00000      7.41058      4.65879     14.03592   #    H2   0.19229356   0.17300415   0.68340683
   79 1     3      0.00000      5.53591      5.42392     18.11140   #    H3   0.14353619   0.19471433   0.88184121
   80 1     3      0.00000      3.08436      5.46320     18.16206   #    H4   0.07986429   0.19642933   0.88430806
   81 1     3      0.00000      2.98672      5.72792     13.86457   #    H5   0.07743157   0.22555114   0.67506367
   82 1     3      0.00000      5.42967      5.71680     13.79721   #    H6   0.14088156   0.22526629   0.67178400
   83 1     3      0.00000      9.65821      6.66673     17.85751   #    H7   0.25064350   0.25600434   0.86947940
   84 1     3      0.00000      9.33512      4.89849     17.98603   #    H8   0.24219725   0.16968339   0.87573691
   85 1     3      0.00000     15.92143      5.07190     16.59760   #    H9   0.41329381   0.18335826   0.80813430
   86 1     3      0.00000     16.45450      2.61976     14.17334   #   H10   0.42712061   0.07350440   0.69009750
   87 1     3      0.00000     16.48163      8.63121     14.17249   #   H11   0.42800201   0.36531818   0.69005610
   88 1     3      0.00000     15.66232     10.77306     17.81589   #   H12   0.40670462   0.45549363   0.86745284
   89 1     3      0.00000     15.91766      6.17437     16.59543   #   H13   0.41322838   0.23688306   0.80802863
   90 1     3      0.00000     16.49974      9.92947     12.06008   #   H14   0.42855754   0.43633721   0.58720331
   91 1     3      0.00000     17.20730     11.83411     20.23345   #   H15   0.44680852   0.49784572   0.98516360
   92 1     3      0.00000     18.40455      2.88578     20.30968   #   H16   0.47763882   0.06318356   0.98887491
   93 1     3      0.00000     16.58708      5.64809     15.52600   #   H17   0.43062285   0.21538544   0.75595858
   94 1     3      0.00000     14.13990      5.03599     13.11543   #   H18   0.36710005   0.19479957   0.63858828
   95 1     3      0.00000     14.13092      5.53448     19.10624   #   H19   0.36674828   0.19631435   0.93027972
   96 1     3      0.00000     17.80721      5.51500     10.92265   #   H20   0.46241073   0.22635464   0.53182233
   97 1     3      0.00000     16.58686      5.73068     16.62539   #   H21   0.43059524   0.21523183   0.80948743
   98 1     3      0.00000     12.16800      4.85966     20.46256   #   H22   0.31571697   0.15842132   0.99631902
   99 1     3      0.00000      9.95564      4.00409     11.30563   #   H23   0.25843571   0.15156115   0.55046935
  100 1     3      0.00000      9.57972      5.23398     12.56469   #   H24   0.24868050   0.20649588   0.61177261
  101 1     2      0.00000     11.43596      5.58026     16.07070   #    C1   0.29682318   0.21002992   0.78247997
  102 1     2      0.00000      9.99645      5.53333     16.05395   #    C2   0.25943488   0.20781570   0.78166421
  103 1     2      0.00000      9.35360      5.14092     14.94871   #    C3   0.24275191   0.19295172   0.72785029
  104 1     2      0.00000      7.88489      5.07034     14.91641   #    C4   0.20460482   0.18964784   0.72627786
  105 1     2      0.00000      7.16818      5.52795     15.95454   #    C5   0.18598089   0.20793070   0.77682403
  106 1     2      0.00000      5.68292      5.54034     15.95157   #    C6   0.14740582   0.20854336   0.77667966
  107 1     2      0.00000      4.99352      5.49046     17.17629   #    C7   0.12947198   0.20148502   0.83631067
  108 1     2      0.00000      3.59592      5.50997     17.20807   #    C8   0.09317307   0.20231148   0.83785836
  109 1     2      0.00000      2.86707      5.58925     16.01663   #    C9   0.07427227   0.21067119   0.77984741
  110 1     2      0.00000      1.42812      5.61105     16.05053   #   C10   0.03689938   0.21160135   0.78149766
  111 1     2      0.00000      3.54130      5.65429     14.79251   #   C11   0.09181249   0.21846361   0.72024478
  112 1     2      0.00000      4.93909      5.63392     14.75755   #   C12   0.12811639   0.21760710   0.71854254
  113 1     1      0.00000      9.23412      5.78747     17.32820   #   C13   0.23961470   0.21532731   0.84370725
  114 1     2      0.00000     16.06349      1.69537     16.08137   #   C14   0.41689556   0.02140800   0.78299929
  115 1     2      0.00000     16.37560      1.68486     14.71201   #   C15   0.42503183   0.02608236   0.71632543
  116 1     2      0.00000     16.54088     10.77187     14.02609   #   C16   0.42960698   0.46978513   0.68292835
  117 1     2      0.00000     16.36359      9.56296     14.71216   #   C17   0.42495161   0.40850380   0.71633281
  118 1     2      0.00000     16.05185      9.55123     16.08115   #   C18   0.41682421   0.40275093   0.78298888
  119 1     2      0.00000     15.90266     10.77329     16.75968   #   C19   0.41297035   0.45950364   0.81602599
  120 1     2      0.00000     17.69216      1.39971     11.95546   #   C20   0.45927857   0.02267763   0.58210948
  121 1     2      0.00000     16.05424      5.31916     12.16512   #   C21   0.41684904   0.21214336   0.59231799
  122 1     2      0.00000     14.66826      5.09189     12.17301   #   C22   0.38084520   0.20108156   0.59270204
  123 1     2      0.00000     13.96584      4.90188     10.97123   #   C23   0.36262295   0.19640831   0.53418755
  124 1     2      0.00000     14.67559      5.70173     20.02748   #   C24   0.38087900   0.20094509   0.97513486
  125 1     2      0.00000     16.06109      5.92744     19.99740   #   C25   0.41687074   0.21201554   0.97367018
  126 1     2      0.00000     16.73832      5.34000     10.93708   #   C26   0.43464395   0.21780523   0.53252453
  127 1     2      0.00000     11.61867      5.24911     11.87558   #   C27   0.30165197   0.20983973   0.57821994
  128 1     2      0.00000     16.05985      5.75918     18.51693   #   C28   0.41686634   0.20945301   0.90158653
  129 1     2      0.00000     16.05539      5.48743     13.64559   #   C29   0.41685094   0.21470640   0.66440142
  130 1     2      0.00000     16.05393      8.06218     16.02805   #   C30   0.41683576   0.33066984   0.78040339
  131 1     2      0.00000     16.06131      3.18442     16.13447   #   C31   0.41688149   0.09348879   0.78558460
  132 1     4      0.00000     12.59250      5.61811     16.08463   #    N1   0.32686184   0.21181480   0.78315828
  133 1     4      0.00000      0.27131      5.62858     16.07777   #    N2   0.00685460   0.21234911   0.78282429
  134 1     5      0.00000     16.83946     10.74442     12.61939   #    N3   0.43739219   0.47377871   0.61443591
  135 1     5      0.00000     17.77464      1.40448     10.53109   #    N4   0.46145267   0.02830253   0.51275727
  136 1     5      0.00000     12.55035      4.64675     10.96434   #    N5   0.32585245   0.18404990   0.53385206
  137 1     5      0.00000     10.26831      4.79036     11.91709   #    N6   0.26656582   0.18741359   0.58024133
  138 1     8      0.00000      7.84394      6.02244     17.08095   #    O1   0.20352113   0.22766948   0.83166862
  139 1     6      0.00000     18.38994      2.21338     12.61844   #    O2   0.47741063   0.05966488   0.61438999
  140 1     6      0.00000     11.96993      6.20668     12.61596   #    O3   0.31078687   0.25351911   0.61426933
  141 1     7      0.00000     17.16785      5.54551     14.14132   #    O4   0.44573444   0.21564879   0.68853886
  142 1     7      0.00000     17.17149      5.70442     18.01895   #    O5   0.44574759   0.20868021   0.87734007
  143 1     7      0.00000     17.16670      7.56412     16.00917   #    O6   0.44572252   0.30656434   0.77948382
  144 1     7      0.00000     17.17264      3.68581     16.15111   #    O7   0.44575949   0.11776467   0.78639505
  145 1     7      0.00000     14.94257      7.56078     16.01141   #    O8   0.38795693   0.30639392   0.77959284
  146 1     9      0.00000     14.94736      5.70110     18.02119   #    O9   0.38798201   0.20851058   0.87744905
  147 1     7      0.00000     14.94372      5.54219     14.14355   #   O10   0.38796885   0.21547913   0.68864706
  148 1     7      0.00000     14.94851      3.68249     16.15333   #   O11   0.38799391   0.11759501   0.78650330
  149 1     10     0.00000     14.57287     15.12037      5.81365   #   Zn1   0.37880387   0.71196725   0.28306565
  150 1     10     0.00000     17.50326     15.12476      5.81070   #   Zn2   0.45491258   0.71219134   0.28292224
  151 1     3      0.00000      9.88718     14.37881      3.78481   #    H1   0.25712981   0.68365189   0.18428157
  152 1     3      0.00000      7.39104     14.15806      3.76684   #    H2   0.19229356   0.67300415   0.18340683
  153 1     3      0.00000      5.51637     14.92319      7.84232   #    H3   0.14353619   0.69471433   0.38184121
  154 1     3      0.00000      3.06482     14.96247      7.89298   #    H4   0.07986429   0.69642933   0.38430806
  155 1     3      0.00000      2.96717     15.22719      3.59549   #    H5   0.07743157   0.72555114   0.17506367
  156 1     3      0.00000      5.41013     15.21607      3.52813   #    H6   0.14088156   0.72526629   0.17178400
  157 1     3      0.00000      9.63867     16.16600      7.58843   #    H7   0.25064350   0.75600434   0.36947940
  158 1     3      0.00000      9.31558     14.39776      7.71695   #    H8   0.24219725   0.66968339   0.37573691
  159 1     3      0.00000     15.90189     14.57117      6.32851   #    H9   0.41329381   0.68335826   0.30813430
  160 1     3      0.00000     16.43496     12.11903      3.90425   #   H10   0.42712061   0.57350440   0.19009750
  161 1     3      0.00000     16.46209     18.13049      3.90340   #   H11   0.42800201   0.86531818   0.19005610
  162 1     3      0.00000     15.64278     20.27234      7.54681   #   H12   0.40670462   0.95549363   0.36745284
  163 1     3      0.00000     15.89812     15.67364      6.32634   #   H13   0.41322838   0.73688306   0.30802863
  164 1     3      0.00000     16.48020     19.42875      1.79100   #   H14   0.42855754   0.93633721   0.08720331
  165 1     3      0.00000     17.18776     21.33338      9.96437   #   H15   0.44680852   0.99784572   0.48516360
  166 1     3      0.00000     18.38500     12.38506     10.04059   #   H16   0.47763882   0.56318356   0.48887491
  167 1     3      0.00000     16.56754     15.14737      5.25692   #   H17   0.43062285   0.71538544   0.25595858
  168 1     3      0.00000     14.12036     14.53526      2.84635   #   H18   0.36710005   0.69479957   0.13858828
  169 1     3      0.00000     14.11138     15.03375      8.83716   #   H19   0.36674828   0.69631435   0.43027972
  170 1     3      0.00000     17.78767     15.01427      0.65357   #   H20   0.46241073   0.72635464   0.03182233
  171 1     3      0.00000     16.56732     15.22995      6.35630   #   H21   0.43059524   0.71523183   0.30948743
  172 1     3      0.00000     12.14846     14.35893     10.19348   #   H22   0.31571697   0.65842132   0.49631902
  173 1     3      0.00000      9.93610     13.50336      1.03655   #   H23   0.25843571   0.65156115   0.05046935
  174 1     3      0.00000      9.56018     14.73325      2.29560   #   H24   0.24868050   0.70649588   0.11177261
  175 1     2      0.00000     11.41642     15.07953      5.80162   #    C1   0.29682318   0.71002992   0.28247997
  176 1     2      0.00000      9.97690     15.03261      5.78487   #    C2   0.25943488   0.70781570   0.28166421
  177 1     2      0.00000      9.33406     14.64019      4.67963   #    C3   0.24275191   0.69295172   0.22785029
  178 1     2      0.00000      7.86534     14.56961      4.64733   #    C4   0.20460482   0.68964784   0.22627786
  179 1     2      0.00000      7.14864     15.02722      5.68546   #    C5   0.18598089   0.70793070   0.27682403
  180 1     2      0.00000      5.66338     15.03961      5.68249   #    C6   0.14740582   0.70854336   0.27667966
  181 1     2      0.00000      4.97398     14.98973      6.90720   #    C7   0.12947198   0.70148502   0.33631067
  182 1     2      0.00000      3.57637     15.00924      6.93899   #    C8   0.09317307   0.70231148   0.33785836
  183 1     2      0.00000      2.84753     15.08852      5.74755   #    C9   0.07427227   0.71067119   0.27984741
  184 1     2      0.00000      1.40857     15.11033      5.78145   #   C10   0.03689938   0.71160135   0.28149766
  185 1     2      0.00000      3.52176     15.15356      4.52342   #   C11   0.09181249   0.71846361   0.22024478
  186 1     2      0.00000      4.91955     15.13319      4.48846   #   C12   0.12811639   0.71760710   0.21854254
  187 1     1      0.00000      9.21457     15.28674      7.05912   #   C13   0.23961470   0.71532731   0.34370725
  188 1     2      0.00000     16.04395     11.19465      5.81229   #   C14   0.41689556   0.52140800   0.28299929
  189 1     2      0.00000     16.35605     11.18413      4.44293   #   C15   0.42503183   0.52608236   0.21632543
  190 1     2      0.00000     16.52134     20.27114      3.75701   #   C16   0.42960698   0.96978513   0.18292835
  191 1     2      0.00000     16.34405     19.06223      4.44308   #   C17   0.42495161   0.90850380   0.21633281
  192 1     2      0.00000     16.03231     19.05050      5.81207   #   C18   0.41682421   0.90275093   0.28298888
  193 1     2      0.00000     15.88312     20.27256      6.49059   #   C19   0.41297035   0.95950364   0.31602599
  194 1     2      0.00000     17.67261     10.89898      1.68638   #   C20   0.45927857   0.52267763   0.08210948
  195 1     2      0.00000     16.03470     14.81843      1.89604   #   C21   0.41684904   0.71214336   0.09231799
  196 1     2      0.00000     14.64872     14.59116      1.90393   #   C22   0.38084520   0.70108156   0.09270204
  197 1     2      0.00000     13.94630     14.40115      0.70215   #   C23   0.36262295   0.69640831   0.03418755
  198 1     2      0.00000     14.65605     15.20101      9.75840   #   C24   0.38087900   0.70094509   0.47513486