ITEM: TIMESTEP
0
ITEM: NUMBER OF ATOMS
592
ITEM: BOX BOUNDS xy xz yz pp pp pp
-2.3318010000000000e-02 3.8518556380000000e+01 -2.3318010000000000e-02
0.0000000000000000e+00 2.2202526169999999e+01 1.5767040000000000e-02
0.0000000000000000e+00 2.0538164819999999e+01 1.6019917400000001e+00
ITEM: ATOMS id type element x y z q
7 3 H 3.10773 6.59327 4.79439 0
8 3 H 5.54287 6.735 4.77686 0
31 2 C 7.42886 4.82667 5.66334 0
32 2 C 5.90227 4.76488 5.63298 0
33 2 C 5.22728 3.61347 6.09081 0
34 2 C 3.8164 3.53266 6.09241 0
35 2 C 3.01306 4.59683 5.63528 0
36 2 C 1.59123 4.45627 5.66746 0
37 2 C 3.6781 5.74996 5.16375 0
38 2 C 5.0931 5.83056 5.16012 0
59 4 N 0.810591 5.3173 5.30978 0
4 3 H 7.58375 6.99478 5.61238 0
5 3 H 5.79167 2.76698 6.46082 0
6 3 H 3.35009 2.62617 6.46035 0
1 10 Zn 14.7607 4.4917 5.46457 0
3 3 H 10.0061 7.05889 5.7397 0
20 3 H 13.9467 7.00369 1.9344 0
21 3 H 14.8916 3.49983 8.22822 0
24 3 H 12.3834 2.34834 9.10495 0
27 2 C 11.6709 5.07129 5.615 0
28 2 C 10.2474 4.96759 5.62727 0
29 2 C 9.51654 6.09208 5.69327 0
30 2 C 8.11679 6.05553 5.64422 0
39 1 C 9.48298 3.66937 5.38556 0
48 2 C 14.524 6.56392 1.1289 0
50 2 C 14.6496 3.43643 9.26416 0
58 4 N 12.4249 4.1266 5.49346 0
64 8 O 8.15784 3.66144 5.9353 0
72 9 O 15.3185 3.63252 7.35662 0
73 7 O 14.9641 5.29486 3.51755 0
99 3 H 10.0221 2.22437 9.97068 0
136 5 N 12.484 2.627 10.1091 0
137 5 N 10.0769 3.22965 10.2526 0
9 3 H 10.0451 2.83072 5.8476 0
10 3 H 9.43384 3.47266 4.29266 0
100 3 H 9.66555 3.78835 9.47067 0
71 7 O 14.8513 6.56208 6.27241 0
74 7 O 15.4273 2.55193 4.65397 0
12 3 H 17.7476 1.77373 2.07157 0
40 2 C 16.8977 0.849537 3.82814 0
41 2 C 17.4917 0.838809 2.55746 0
2 10 Zn 17.7136 5.00935 5.40086 0
11 3 H 15.9835 4.71028 5.44428 0
15 3 H 15.9835 4.71028 5.44428 0
19 3 H 16.5903 4.83614 5.43457 0
22 3 H 17.4197 4.76414 0.538923 0
23 3 H 16.9133 4.88158 5.42372 0
47 2 C 15.7447 5.88787 1.4073 0
51 2 C 15.9379 3.91962 9.41948 0
52 2 C 16.5014 5.30591 0.351964 0
54 2 C 16.3808 4.03452 8.02694 0
55 2 C 16.0216 5.59445 2.8214 0
57 2 C 16.66 2.1616 4.47093 0
67 7 O 17.2399 5.55966 3.29875 0
68 7 O 17.5341 4.41781 7.54367 0
69 7 O 17.0901 7.04543 6.05613 0
70 7 O 17.701 2.9084 4.73771 0
303 3 H 22.3484 6.66737 4.85334 0
331 2 C 22.2577 4.64676 5.63455 0
332 2 C 20.8363 4.50133 5.6614 0
333 2 C 22.9205 5.81475 5.19788 0
355 4 N 20.0524 5.36986 5.32985 0
330 2 C 23.063 3.57123 6.06038 0
56 2 C 15.8681 7.37879 6.38529 0
302 3 H 22.5984 2.6532 6.4009 0
299 3 H 29.2512 7.11299 5.7926 0
300 3 H 26.8288 7.05192 5.66449 0
304 3 H 24.7832 6.81456 4.84106 0
324 2 C 29.4921 5.02444 5.63714 0
325 2 C 28.7614 6.14745 5.7266 0
326 2 C 27.3615 6.11208 5.67719 0
327 2 C 26.6734 4.88303 5.67109 0
328 2 C 25.1467 4.82048 5.63863 0
329 2 C 24.4736 3.65484 6.06199 0
334 2 C 24.3354 5.89821 5.19722 0
335 1 C 28.7272 3.73181 5.3685 0
360 8 O 27.4026 3.71266 5.91904 0
395 3 H 29.2393 2.32146 9.94444 0
433 5 N 29.309 3.32667 10.2233 0
301 3 H 25.0392 2.79868 6.40692 0
305 3 H 29.2893 2.88333 5.81215 0
306 3 H 28.6771 3.55839 4.2717 0
396 3 H 28.9095 3.88925 9.43806 0
323 2 C 30.9158 5.12724 5.6255 0
297 10 Zn 34.0083 4.52086 5.45475 0
298 10 Zn 36.9698 4.98835 5.38613 0
307 3 H 35.2348 4.71917 5.43291 0
308 3 H 36.811 1.77998 1.98787 0
311 3 H 35.2348 4.71917 5.43291 0
315 3 H 35.8439 4.83196 5.42211 0
316 3 H 33.2265 7.04164 1.9183 0
317 3 H 34.1293 3.51881 8.21292 0
318 3 H 36.6708 4.75226 0.532952 0
319 3 H 36.1676 4.87298 5.41061 0
320 3 H 31.6047 2.40414 9.08748 0
336 2 C 36.0698 0.853223 3.79149 0
337 2 C 36.5836 0.84432 2.48641 0
343 2 C 35.0102 5.90101 1.39629 0
344 2 C 33.7988 6.59198 1.11466 0
346 2 C 33.8857 3.46102 9.24853 0
347 2 C 35.1808 3.92508 9.40492 0
348 2 C 35.76 5.30553 0.343437 0
350 2 C 35.6264 4.03059 8.01219 0
351 2 C 35.2826 5.60744 2.81135 0
353 2 C 35.866 2.16367 4.44727 0
354 4 N 31.6676 4.18357 5.48451 0
363 7 O 36.5006 5.55076 3.28689 0
364 7 O 36.7856 4.39573 7.52861 0
366 7 O 36.9226 2.88754 4.71607 0
368 9 O 34.5587 3.64336 7.34156 0
369 7 O 34.2208 5.32731 3.50929 0
370 7 O 34.642 2.57761 4.63441 0
432 5 N 31.7068 2.68545 10.0908 0
352 2 C 35.1669 7.38435 6.38304 0
365 7 O 36.3807 7.0287 6.04787 0
367 7 O 34.1333 6.58864 6.27169 0
152 3 H 7.46108 12.8703 5.10839 0
153 3 H 5.38444 13.2004 4.46077 0
154 3 H 2.95354 13.3424 4.5406 0
181 2 C 4.94776 14.0585 4.94991 0
182 2 C 3.53327 14.1392 4.98996 0
207 4 N 0.670186 14.555 5.23703 0
313 3 H 0.460122 10.4562 8.80474 0
462 3 H 1.90797 10.6643 9.62981 0
579 5 N 1.06809 10.0473 9.55063 0
222 7 O 14.7352 13.3085 6.30904 0
13 3 H 14.7707 7.75658 8.76863 0
42 2 C 14.6523 9.89766 8.92402 0
43 2 C 14.9899 8.69897 8.27883 0
160 3 H 14.6521 12.0383 8.80833 0
189 2 C 14.9215 11.1185 8.30142 0
213 6 O 12.1682 8.9166 9.17924 0
151 3 H 9.88343 12.7968 5.20842 0
168 3 H 13.5348 12.9992 2.18062 0
177 2 C 9.39029 13.7566 5.31864 0
178 2 C 7.98939 13.795 5.28757 0
196 2 C 14.2094 13.1097 1.33963 0
175 2 C 11.541 14.7841 5.43774 0
221 7 O 14.8161 14.5257 3.55334 0
66 6 O 12.1227 9.20014 0.600173 0
173 3 H 10.648 12.3246 1.68615 0
174 3 H 9.5634 13.2839 0.832583 0
197 2 C 13.7186 12.7946 0.0698029 0
201 2 C 11.455 13.399 0.173842 0
211 5 N 10.5221 13.2655 1.24826 0
60 5 N 14.0594 9.89243 10.2356 0
194 2 C 12.7372 9.31263 10.2541 0
14 3 H 16.3682 9.97113 5.42647 0
44 2 C 15.605 8.70332 7.0182 0
45 2 C 15.901 9.94965 6.40323 0
188 2 C 15.54 11.1678 7.04333 0
205 2 C 15.7673 12.5104 6.43758 0
218 7 O 16.9846 12.8661 6.12652 0
170 3 H 17.4031 14.1577 0.515285 0
200 2 C 16.4056 13.7504 0.41277 0
195 2 C 15.5287 13.6221 1.52528 0
203 2 C 15.8499 14.1297 2.87379 0
215 7 O 17.0779 14.184 3.32976 0
450 3 H 22.2198 13.1176 5.36435 0
478 2 C 22.7903 14.0373 5.32283 0
503 4 N 19.9208 14.4972 5.35162 0
90 3 H 17.3395 10.1044 10.1573 0
283 5 N 19.9235 10.0465 9.29699 0
17 3 H 19.262 10.4532 8.59684 0
166 3 H 20.7668 10.6637 9.31225 0
447 3 H 29.1197 13.0374 4.28178 0
448 3 H 26.6958 13.0454 4.43094 0
473 2 C 28.6291 13.9176 4.68315 0
474 2 C 27.2289 13.9309 4.7459 0
449 3 H 24.6563 12.9794 5.32271 0
477 2 C 24.2055 13.9609 5.2933 0
469 3 H 29.8313 12.3951 1.63532 0
470 3 H 28.7654 13.3606 0.765388 0
507 5 N 29.7198 13.3346 1.1905 0
497 2 C 30.6649 13.4515 0.124903 0
309 3 H 34.2359 7.75954 8.83597 0
338 2 C 34.1302 9.90158 9.00059 0
456 3 H 34.1268 12.0431 8.88567 0
509 6 O 31.6698 8.92515 9.4426 0
310 3 H 35.59 9.97399 5.38872 0
339 2 C 34.4182 8.70237 8.33204 0
340 2 C 34.9406 8.70731 7.03067 0
341 2 C 35.192 9.95296 6.39571 0
484 2 C 34.881 11.1711 7.06044 0
485 2 C 34.3555 11.1227 8.36024 0
501 2 C 35.073 12.5126 6.44127 0
514 7 O 36.2782 12.8831 6.10092 0
518 7 O 34.0277 13.2963 6.33437 0
466 3 H 36.6165 14.1523 0.519115 0
496 2 C 35.6152 13.7563 0.409592 0
464 3 H 32.7234 13.0367 2.1564 0
492 2 C 33.4059 13.1395 1.32084 0
491 2 C 34.7295 13.6367 1.51617 0
499 2 C 35.0559 14.1321 2.86818 0
511 7 O 36.2896 14.2055 3.30477 0
517 7 O 34.0259 14.5042 3.56753 0
386 3 H 36.9282 10.1018 10.2203 0
362 6 O 31.4242 9.25011 0.582677 0
493 2 C 32.923 12.8248 0.0474209 0
342 2 C 0.0418571 19.6264 0.384974 0
361 6 O 1.03854 20.1385 0.996015 0
155 3 H 3.23874 17.1028 6.62518 0
156 3 H 5.67855 16.9602 6.56602 0
179 2 C 7.298 15.0018 5.51742 0
180 2 C 5.76986 15.0651 5.52131 0
183 2 C 2.88046 15.2344 5.59678 0
184 2 C 1.45978 15.3744 5.666 0
185 2 C 3.6954 16.2412 6.15237 0
186 2 C 5.10581 16.1593 6.11611 0
158 3 H 9.91111 16.9678 5.95339 0
172 3 H 12.071 17.5677 9.42811 0
157 3 H 9.27063 16.5381 4.33838 0
187 1 C 9.34459 16.1945 5.39315 0
247 3 H 10.7421 19.6681 9.13348 0
284 5 N 12.6726 18.2784 9.90537 0
149 10 Zn 14.6293 15.3815 5.45825 0
169 3 H 14.821 16.6805 8.1546 0
176 2 C 10.1168 14.8797 5.43693 0
198 2 C 14.6719 17.0474 9.14674 0
206 4 N 12.2917 15.7383 5.47814 0
212 8 O 8.03076 16.1109 5.96244 0
219 7 O 15.3082 17.3128 4.60874 0
220 9 O 15.1569 16.2625 7.33302 0
248 3 H 11.4581 20.1075 7.67767 0
271 2 C 13.957 17.6798 10.1475 0
285 5 N 11.5649 20.1594 8.71601 0
18 3 H 11.6216 19.1878 1.55698 0
165 3 H 13.1333 18.9845 2.26041 0
120 2 C 13.0706 18.7076 0.253468 0
135 5 N 12.4773 18.5879 1.54933 0
275 2 C 12.7554 19.445 9.05797 0
288 6 O 13.8814 19.8913 8.64662 0
238 3 H 15.0539 18.7272 0.690867 0
282 5 N 14.3841 19.2915 0.11868 0
46 2 C 19.5905 19.6297 0.593007 0
65 6 O 20.5421 20.1555 1.26167 0
190 2 C 17.7267 20.2353 1.89703 0
208 5 N 18.299 20.2653 0.579722 0
162 3 H 16.0759 20.2202 5.42668 0
193 2 C 16.5289 20.2237 4.44255 0
451 3 H 22.462 17.4186 5.24165 0
161 3 H 17.6135 18.0873 2.00884 0
191 2 C 17.4043 19.02 2.52048 0
192 2 C 16.8121 19.0009 3.79083 0
204 2 C 16.5455 17.6849 4.41172 0
159 3 H 15.8526 15.1652 5.44412 0
150 10 Zn 17.5821 14.8621 5.40404 0
163 3 H 15.8526 15.1652 5.44412 0
167 3 H 16.459 15.0378 5.437 0
171 3 H 16.7819 14.9913 5.42531 0
199 2 C 15.9236 16.4837 9.34447 0
202 2 C 16.2642 16.0059 7.99887 0
216 7 O 17.4084 15.5863 7.51961 0
217 7 O 17.5769 16.9244 4.66802 0
479 2 C 22.1252 15.283 5.30105 0
480 2 C 20.7037 15.4272 5.32557 0
481 2 C 22.9284 16.4404 5.25662 0
454 3 H 28.5413 15.8234 6.95323 0
452 3 H 24.9032 17.2876 5.1851 0
453 3 H 29.1539 17.0048 5.75707 0
483 1 C 28.5929 16.053 5.86678 0
543 3 H 30.0344 19.679 9.12676 0
471 2 C 30.7828 14.8477 5.12204 0
472 2 C 29.3588 14.9413 5.15574 0
475 2 C 26.5404 15.08 5.18194 0
476 2 C 25.0141 15.1257 5.23551 0
482 2 C 24.339 16.3646 5.22584 0
508 8 O 27.2687 16.264 5.35732 0
544 3 H 30.752 20.1218 7.67282 0
314 3 H 30.4766 19.1876 1.22203 0
458 3 H 35.3441 20.2231 5.43346 0
486 2 C 36.7719 20.2415 1.80776 0
489 2 C 35.7363 20.2274 4.42356 0
504 5 N 37.261 20.2736 0.45733 0
468 3 H 31.3601 17.5739 9.41469 0
580 5 N 31.9616 18.2826 9.89507 0
581 5 N 30.8584 20.17 8.71137 0
571 2 C 32.0472 19.4517 9.05137 0
455 3 H 35.0991 15.1644 5.43754 0
445 10 Zn 33.8736 15.3649 5.47484 0
446 10 Zn 36.8316 14.8858 5.36603 0
457 3 H 36.6525 18.0932 1.91975 0
459 3 H 35.0991 15.1644 5.43754 0
463 3 H 35.7071 15.0448 5.42834 0
465 3 H 34.1063 16.685 8.1479 0
467 3 H 36.0304 15.0036 5.40677 0
487 2 C 36.4813 19.0255 2.44612 0
488 2 C 35.9708 19.0057 3.75152 0
494 2 C 33.9609 17.0506 9.1388 0
495 2 C 35.2134 16.4874 9.33411 0
498 2 C 35.5507 16.0134 7.98394 0
500 2 C 35.735 17.6903 4.38482 0
502 4 N 31.5334 15.6889 5.57453 0
512 7 O 36.6941 15.6065 7.49086 0
513 7 O 36.7818 16.9474 4.62872 0
515 7 O 34.5065 17.3002 4.60207 0
516 9 O 34.4389 16.268 7.32597 0
567 2 C 33.245 17.6827 10.1384 0
461 3 H 31.9318 18.9898 2.03703 0
416 2 C 32.0194 18.7044 0.0324345 0
431 5 N 31.3313 18.5889 1.28085 0
534 3 H 33.9668 18.7278 0.613811 0
584 6 O 33.1743 19.897 8.64199 0
78 3 H 7.45525 3.39708 14.7641 0
81 3 H 2.9777 3.51803 15.6795 0
82 3 H 5.41294 3.37033 15.6422 0
105 2 C 7.30461 5.45935 15.4369 0
106 2 C 5.77842 5.51169 15.4883 0
107 2 C 5.10744 6.75203 15.44 0
108 2 C 3.69709 6.83356 15.4688 0
109 2 C 2.89025 5.68077 15.5492 0
110 2 C 1.46931 5.82976 15.5714 0
111 2 C 3.55111 4.4341 15.6092 0
112 2 C 4.96587 4.35206 15.5821 0
133 4 N 0.684628 4.90244 15.6251 0
123 2 C 13.8055 3.16199 10.3192 0
127 2 C 11.4523 3.60444 10.3654 0
140 6 O 11.7393 4.80988 10.6835 0
75 10 Zn 14.6398 5.74925 15.745 0
77 3 H 9.879 3.37673 14.6177 0
84 3 H 9.3062 6.26522 17.1804 0
94 3 H 13.6237 3.28107 12.4398 0
95 3 H 14.8373 7.09046 18.4241 0
101 2 C 11.5465 5.21201 15.3935 0
102 2 C 10.1227 5.31154 15.4193 0
103 2 C 9.39049 4.27289 14.9849 0
104 2 C 7.99031 4.29257 15.0456 0
113 1 C 9.35917 6.45218 16.0859 0
122 2 C 14.2852 3.45574 11.5991 0
132 4 N 12.2978 6.06919 15.8135 0
138 8 O 8.03614 6.64708 15.5675 0
146 9 O 15.162 6.63251 17.6193 0
147 7 O 14.8308 4.89327 13.8329 0
148 7 O 14.7798 3.68072 16.6002 0
86 3 H 14.8983 2.43909 19.1821 0
115 2 C 15.1205 1.51798 18.6553 0
83 3 H 9.92285 7.39735 15.9394 0
131 2 C 15.8274 2.90442 16.7297 0
76 10 Zn 17.6012 5.28277 15.6821 0
85 3 H 15.8668 5.55621 15.7217 0
89 3 H 15.8668 5.55621 15.7217 0
93 3 H 16.476 5.44315 15.7159 0
96 3 H 17.4144 4.70141 10.8003 0
97 3 H 16.7992 5.4004 15.704 0
121 2 C 15.5757 4.03199 11.7964 0
125 2 C 15.952 6.94254 19.6091 0
126 2 C 16.4394 4.24558 10.6863 0
128 2 C 16.2806 6.41468 18.2789 0
129 2 C 15.8761 4.52366 13.1539 0
141 7 O 17.1018 4.59809 13.6132 0
142 7 O 17.4286 6.01227 17.7952 0
144 7 O 17.0364 3.28209 16.4131 0
377 3 H 22.2348 3.56416 15.6958 0
404 2 C 22.9538 6.87725 15.4486 0
405 2 C 22.1471 5.72538 15.5421 0
406 2 C 20.7261 5.87373 15.5647 0
407 2 C 22.808 4.47946 15.6149 0
429 4 N 19.9432 4.94559 15.6281 0
143 7 O 17.5617 7.34572 14.9412 0
114 2 C 15.6343 1.5646 17.3507 0
423 2 C 30.6898 3.67994 10.3401 0
373 3 H 29.1341 3.40531 14.6413 0
374 3 H 26.7113 3.42948 14.7874 0
378 3 H 24.6691 3.41581 15.6581 0
380 3 H 28.5666 6.3384 17.1566 0
397 2 C 30.8028 5.24944 15.3897 0
398 2 C 29.3794 5.35249 15.4117 0
399 2 C 28.6463 4.30775 14.9938 0
400 2 C 27.2464 4.32922 15.0545 0
401 2 C 26.5614 5.5021 15.4281 0
402 2 C 25.0352 5.55541 15.4803 0
403 2 C 24.3642 6.79526 15.4192 0
408 2 C 24.2226 4.397 15.5875 0
409 1 C 28.6172 6.50516 16.0588 0
434 8 O 27.2932 6.69159 15.5398 0
419 2 C 33.0358 3.20097 10.3024 0
436 6 O 30.9947 4.88173 10.6554 0
371 10 Zn 33.894 5.76902 15.7313 0
372 10 Zn 36.8486 5.26259 15.6756 0
381 3 H 35.1181 5.55929 15.7114 0
382 3 H 33.9529 2.43631 19.0939 0
385 3 H 35.1181 5.55928 15.7114 0
389 3 H 35.7254 5.4353 15.7073 0
390 3 H 32.8519 3.32605 12.4221 0
391 3 H 34.0998 7.10144 18.4142 0
392 3 H 36.6667 4.68708 10.7872 0
393 3 H 36.0481 5.3895 15.6959 0
417 2 C 34.8163 4.04709 11.7813 0
418 2 C 33.5176 3.48978 11.5825 0
421 2 C 35.212 6.94462 19.6001 0
422 2 C 35.6851 4.24587 10.6722 0
424 2 C 35.5348 6.40697 18.2722 0
425 2 C 35.1213 4.53469 13.1396 0
427 2 C 35.0408 2.90421 16.7086 0
428 4 N 31.5561 6.11229 15.7943 0
437 7 O 36.3466 4.58994 13.6025 0
438 7 O 36.6787 5.99079 17.7902 0
440 7 O 36.2571 3.2644 16.399 0
442 9 O 34.4187 6.6347 17.612 0
443 7 O 34.0799 4.91892 13.8163 0
444 7 O 34.0062 3.69728 16.5766 0
439 7 O 36.836 7.32472 14.9416 0
410 2 C 34.8177 1.56329 17.3185 0
411 2 C 34.2143 1.51581 18.5843 0
79 3 H 5.6746 7.67154 15.3708 0
80 3 H 3.23394 7.8124 15.4239 0
564 2 C 0.374147 10.1099 10.7995 0
583 6 O 0.965114 9.69646 11.8558 0
227 3 H 5.77047 13.7787 16.674 0
228 3 H 3.3299 13.6297 16.664 0
255 2 C 5.20395 14.6375 16.3372 0
256 2 C 3.79354 14.5518 16.3333 0
16 3 H 14.6764 9.32783 10.8645 0
209 5 N 12.0286 9.20157 11.4914 0
91 3 H 12.6188 9.60068 12.2566 0
240 3 H 11.1777 9.80401 11.4183 0
49 2 C 13.9984 8.18345 20.3768 0
98 3 H 12.4297 8.58696 19.1199 0
124 2 C 14.7002 7.50213 19.4006 0
145 7 O 15.2848 7.69026 14.8919 0
25 3 H 14.1211 10.3497 18.6778 0
26 3 H 14.3992 11.4237 19.9409 0
53 2 C 12.8268 10.2098 20.2438 0
62 5 N 12.7206 8.78481 20.106 0
63 5 N 13.649 10.984 19.3611 0
231 3 H 10.0195 13.8735 16.0832 0
232 3 H 9.40744 14.5669 14.551 0
261 1 C 9.45705 14.727 15.6499 0
286 8 O 8.13235 14.701 16.1994 0
294 9 O 15.2902 14.6446 17.6405 0
296 7 O 15.3719 13.5723 14.929 0
210 5 N 12.3857 13.9359 20.4131 0
243 3 H 14.8509 14.5773 18.5136 0
246 3 H 12.238 13.6745 19.41 0
272 2 C 14.5987 14.576 19.5492 0
376 3 H 22.4906 7.85554 15.3938 0
130 2 C 16.5141 8.08521 14.6875 0
87 3 H 17.4236 8.48812 12.2188 0
88 3 H 16.1213 10.6192 15.7348 0
116 2 C 17.5257 10.6362 12.1003 0
117 2 C 17.25 9.42028 12.7446 0
118 2 C 16.7472 9.40076 14.053 0
119 2 C 16.5078 10.6231 14.7227 0
134 5 N 17.9996 10.6672 10.7418 0
234 3 H 17.5203 12.7759 12.2703 0
262 2 C 16.8031 11.8499 14.0839 0
263 2 C 17.3059 11.8403 12.7746 0
268 2 C 19.3237 10.1123 10.5936 0
279 2 C 16.5965 13.1615 14.7371 0
287 6 O 19.9903 9.70019 11.6044 0
292 7 O 17.6519 13.8892 14.9996 0
524 3 H 22.5819 13.6082 16.6607 0
552 2 C 23.0467 14.5253 16.3181 0
375 3 H 24.9314 7.71393 15.3396 0
379 3 H 29.1811 7.44719 15.8937 0
523 3 H 25.0231 13.7523 16.6638 0
527 3 H 29.2752 13.8378 16.0303 0
528 3 H 28.6616 14.5451 14.5051 0
551 2 C 24.4574 14.6081 16.3181 0
557 1 C 28.712 14.695 15.6054 0
582 8 O 27.3876 14.6635 16.1555 0
312 3 H 34.2987 9.32937 10.9323 0
356 5 N 33.6374 9.89642 10.353 0
490 2 C 32.3203 9.31718 10.4716 0
505 5 N 31.7104 9.2005 11.76 0
387 3 H 32.359 9.59516 12.4789 0
536 3 H 30.857 9.80382 11.7565 0
345 2 C 33.2742 8.21402 20.362 0
394 3 H 31.7123 8.6347 19.102 0
420 2 C 33.9677 7.51977 19.3887 0
426 2 C 35.8018 8.08309 14.6894 0
441 7 O 34.5655 7.70798 14.8897 0
383 3 H 36.8694 8.48647 12.2859 0
412 2 C 36.9753 10.6339 12.1722 0
430 5 N 37.545 10.6641 10.8511 0
530 3 H 36.962 12.7729 12.3415 0
321 3 H 33.4227 10.3809 18.6639 0
322 3 H 33.7076 11.4534 19.927 0
359 5 N 32.9548 11.0198 19.3459 0
349 2 C 32.124 10.2534 20.2272 0
358 5 N 32.0036 8.82951 20.0886 0
384 3 H 35.3269 10.6185 15.703 0
413 2 C 36.6569 9.4187 12.7971 0
414 2 C 36.0643 9.39933 14.0674 0
415 2 C 35.7779 10.6221 14.718 0
558 2 C 36.1185 11.8485 14.1011 0
559 2 C 36.7101 11.8379 12.8293 0
575 2 C 35.8832 13.1606 14.7438 0
588 7 O 36.9265 13.9029 15.0132 0
592 7 O 34.6516 13.5558 14.9241 0
590 9 O 34.5274 14.6432 17.6312 0
506 5 N 31.5879 13.9773 20.3806 0
539 3 H 34.078 14.5853 18.5001 0
542 3 H 31.4475 13.7104 19.378 0
568 2 C 33.8143 14.5928 19.5334 0
357 5 N 0.249565 20.0335 20.1541 0
226 3 H 7.55541 18.0419 15.9742 0
229 3 H 3.07585 17.6591 15.1572 0
230 3 H 5.51027 17.81 15.1489 0
253 2 C 7.40215 15.8728 15.9613 0
254 2 C 5.87572 15.8084 15.9264 0
257 2 C 2.98726 15.6305 15.9177 0
258 2 C 1.56617 15.4831 15.9416 0
259 2 C 3.64877 16.8039 15.4936 0
260 2 C 5.0635 16.8894 15.4952 0
281 4 N 0.78237 16.3546 15.6178 0
388 3 H 0.919349 20.2622 19.3852 0
223 10 Zn 14.7356 15.5164 15.7509 0
242 3 H 13.8983 18.0236 12.252 0
270 2 C 14.4855 17.6157 11.4371 0
280 4 N 12.3962 15.1774 15.7826 0
295 7 O 14.9377 16.325 13.8071 0
214 6 O 11.4779 16.0702 20.0128 0
139 6 O 12.4247 19.9151 19.7707 0
225 3 H 9.97781 18.104 16.1075 0
249 2 C 11.6441 16.1205 15.926 0
250 2 C 10.2206 16.017 15.9343 0
251 2 C 9.48888 17.1388 16.0318 0
252 2 C 8.08896 17.1025 15.9794 0
293 7 O 14.859 17.5839 16.5665 0
235 3 H 14.9827 18.7554 19.1353 0
264 2 C 14.8777 20.8978 19.299 0
265 2 C 15.1593 19.698 18.6288 0
164 3 H 17.6605 21.3664 20.4743 0
61 5 N 19.8565 20.0322 20.3868 0
239 3 H 18.9924 19.7331 19.8816 0
233 3 H 15.9616 15.7156 15.7238 0
237 3 H 15.9616 15.7156 15.7238 0
92 3 H 20.5713 20.2604 19.6594 0
266 2 C 15.6691 19.7022 17.3226 0
267 2 C 15.915 20.9467 16.6843 0
278 2 C 15.8926 18.3801 16.6742 0
224 10 Zn 17.6955 15.9894 15.6694 0
236 3 H 16.3051 20.9668 15.6742 0
241 3 H 16.5707 15.8287 15.7086 0
244 3 H 17.4004 15.8619 10.8011 0
245 3 H 16.8939 15.8714 15.6965 0
269 2 C 15.7115 16.9409 11.699 0
273 2 C 15.9088 15.0007 19.6947 0
274 2 C 16.4787 16.4024 10.628 0
276 2 C 16.3613 15.0407 18.3017 0
277 2 C 15.9938 16.6174 13.106 0
289 7 O 17.2149 16.5588 13.5738 0
290 7 O 17.5195 15.3988 17.8107 0
291 7 O 17.1053 18.0259 16.3346 0
525 3 H 22.3331 17.6207 15.1081 0
553 2 C 22.2417 15.6009 15.8917 0
554 2 C 20.8202 15.4578 15.9229 0
555 2 C 22.9049 16.7679 15.4527 0
577 4 N 20.0376 16.3261 15.588 0
521 3 H 29.2305 18.0685 16.0906 0
522 3 H 26.8071 18.0053 15.9554 0
526 3 H 24.7689 17.7664 15.0943 0
546 2 C 29.4748 15.983 15.901 0
547 2 C 28.7423 17.1035 16.0066 0
548 2 C 27.3423 17.0667 15.9532 0
549 2 C 26.6566 15.8366 15.9262 0
550 2 C 25.1304 15.7732 15.8934 0
556 2 C 24.3198 16.8508 15.4512 0
510 6 O 30.7056 16.118 19.957 0
578 5 N 33.3546 20.8916 20.5315 0
460 3 H 36.5796 21.3831 20.3925 0
535 3 H 37.8557 19.7465 19.7012 0
519 10 Zn 33.9901 15.4998 15.7321 0
529 3 H 35.2143 15.7102 15.7167 0
533 3 H 35.2143 15.7102 15.7167 0
538 3 H 33.1828 18.0222 12.2427 0
566 2 C 33.7714 17.6158 11.4279 0
576 4 N 31.6522 15.147 15.7453 0
591 7 O 34.2078 16.3039 13.7874 0
435 6 O 31.4511 19.908 19.5047 0
545 2 C 30.8984 16.0872 15.898 0
520 10 Zn 36.9458 16.001 15.679 0
531 3 H 34.0447 18.7544 19.0561 0
532 3 H 35.5998 20.9654 15.6922 0
537 3 H 35.8221 15.8313 15.7074 0
540 3 H 36.6864 15.86 10.7934 0
541 3 H 36.1451 15.8763 15.6984 0
560 2 C 33.9289 20.8959 19.2116 0
561 2 C 34.2575 19.6967 18.5631 0
562 2 C 34.8554 19.7005 17.2945 0
563 2 C 35.145 20.9453 16.6747 0
565 2 C 34.9954 16.9381 11.6903 0
569 2 C 35.1259 15.0092 19.6885 0
570 2 C 35.7659 16.4023 10.6192 0
572 2 C 35.5923 15.0426 18.3003 0
573 2 C 35.268 16.6089 13.0977 0
574 2 C 35.1099 18.377 16.659 0
585 7 O 36.4845 16.5635 13.578 0
586 7 O 36.7521 15.4094 17.819 0
587 7 O 36.3309 18.0363 16.3351 0
589 7 O 34.0876 17.5682 16.5402 0
ITEM: TIMESTEP
2500
ITEM: NUMBER OF ATOMS
592
ITEM: BOX BOUNDS xy xz yz pp pp pp
1.5489940287302169e+00 3.7695136147065504e+01 1.8780934408060906e-01
2.1434017129634064e-01 2.1694996095209511e+01 5.5353149171504679e-01
-3.1250467348773014e-01 2.0850669493487793e+01 1.3088018365057534e+00
ITEM: ATOMS id type element x y z q
7 3 H 4.4013 6.5645 3.87147 0
8 3 H 6.75498 6.29547 3.75401 0
31 2 C 8.32922 4.33125 4.91382 0
32 2 C 6.84508 4.42532 4.88802 0
33 2 C 6.04123 3.44858 5.50604 0
34 2 C 4.64898 3.60675 5.53963 0
35 2 C 4.04583 4.72844 4.96013 0
36 2 C 2.66569 4.84041 4.98395 0
37 2 C 4.83995 5.69137 4.33989 0
38 2 C 6.2124 5.53113 4.28535 0
59 4 N 2.06832 5.77881 4.51571 0
4 3 H 8.65124 6.47182 4.57991 0
5 3 H 6.4871 2.59839 5.9993 0
6 3 H 4.02985 2.88439 6.04302 0
30 2 C 9.09141 5.49955 4.73095 0
39 1 C 10.315 3.01627 5.05062 0
64 8 O 8.91241 3.1185 5.28378 0
10 3 H 10.4896 2.44049 4.11702 0
29 2 C 10.4581 5.46936 4.77411 0
194 2 C 10.4237 9.69057 4.81143 0
308 3 H 2.5303 1.6641 4.37838 0
337 2 C 1.98491 0.734848 4.47711 0
240 3 H 8.86708 10.7975 4.18223 0
209 5 N 9.03163 10.029 4.87158 0
91 3 H 8.82173 10.4231 5.81718 0
1 10 Zn 15.1847 4.09655 5.39994 0
3 3 H 11.003 6.40149 4.66263 0
20 3 H 13.8585 6.21149 1.84956 0
21 3 H 15.5504 3.70205 8.46458 0
24 3 H 13.3412 2.33771 9.75071 0
27 2 C 12.4736 4.35868 5.10476 0
28 2 C 11.0915 4.32303 4.97677 0
48 2 C 14.4422 5.86595 1.00303 0
50 2 C 15.4836 3.65611 9.54024 0
58 4 N 13.1189 3.39674 5.43637 0
72 9 O 15.8202 3.85795 7.52781 0
73 7 O 15.1965 4.54698 3.34558 0
9 3 H 10.7294 2.41305 5.88615 0
71 7 O 14.7086 6.15871 5.70564 0
74 7 O 16.2486 2.21032 4.91188 0
40 2 C 18.1916 0.820393 4.44792 0
41 2 C 19.5607 0.789229 4.11392 0
2 10 Zn 17.8254 5.2499 5.21028 0
11 3 H 16.2699 4.55269 5.35563 0
15 3 H 16.2699 4.55269 5.35563 0
19 3 H 16.8635 4.85404 5.32407 0
22 3 H 17.4828 4.42709 0.21366 0
23 3 H 17.1143 4.95192 5.28654 0
47 2 C 15.7245 5.28412 1.20284 0
51 2 C 16.6786 4.34859 9.4984 0
52 2 C 16.506 4.87596 0.0888483 0
54 2 C 16.8798 4.46111 8.04722 0
55 2 C 16.1261 5.0439 2.59665 0
57 2 C 17.5413 2.12898 4.7437 0
67 7 O 17.3084 5.36378 3.04578 0
68 7 O 17.8739 5.0069 7.41013 0
69 7 O 16.7587 7.14291 5.48944 0
70 7 O 18.3246 3.1586 4.8713 0
56 2 C 15.4624 7.21115 5.6316 0
13 3 H 12.7851 7.63751 5.79171 0
42 2 C 12.6714 9.77008 5.75727 0
43 2 C 13.3594 8.55271 5.72832 0
213 6 O 10.9073 9.25301 3.71425 0
60 5 N 11.2461 9.83784 5.98696 0
14 3 H 16.5755 9.72213 5.54852 0
44 2 C 14.7739 8.52146 5.66107 0
45 2 C 15.4942 9.73496 5.60919 0
189 2 C 13.4014 10.9567 5.70541 0
188 2 C 14.8118 10.9661 5.63465 0
16 3 H 10.9592 9.13383 6.70561 0
12 3 H 20.0924 1.71136 3.96478 0
303 3 H 22.0907 7.12447 4.87483 0
331 2 C 21.7811 4.98405 4.68757 0
332 2 C 20.4064 5.00732 4.80214 0
333 2 C 22.5543 6.14839 4.79089 0
355 4 N 19.7896 6.01608 5.01401 0
330 2 C 22.4115 3.74311 4.57262 0
302 3 H 21.8434 2.83234 4.4998 0
300 3 H 26.5002 6.73629 5.42402 0
304 3 H 24.4762 6.98361 4.9852 0
326 2 C 26.8467 5.7168 5.43093 0
327 2 C 26.0256 4.62136 5.13147 0
328 2 C 24.5785 4.79639 4.84176 0
329 2 C 23.7939 3.64843 4.64619 0
334 2 C 23.9407 6.05802 4.85816 0
335 1 C 27.8632 3.15138 5.13839 0
360 8 O 26.4775 3.32749 5.39572 0
301 3 H 24.2405 2.66239 4.61419 0
306 3 H 28.0241 2.99121 4.05011 0
325 2 C 28.1722 5.51432 5.7471 0
305 3 H 28.1844 2.2286 5.66625 0
509 6 O 28.983 9.73575 3.46388 0
536 3 H 26.5903 10.5199 4.03588 0
490 2 C 28.3479 9.70534 4.56338 0
505 5 N 26.9217 9.65223 4.51556 0
387 3 H 26.5511 9.68104 5.49223 0
299 3 H 28.7719 6.37603 6.00292 0
324 2 C 28.7245 4.30746 5.61676 0
323 2 C 30.1151 4.24398 5.61423 0
297 10 Zn 32.8139 3.99455 5.25753 0
298 10 Zn 35.4539 5.14836 4.85266 0
307 3 H 33.8909 4.48316 5.11365 0
311 3 H 33.8909 4.48316 5.11365 0
315 3 H 34.4658 4.79154 5.03154 0
316 3 H 31.1482 5.3466 1.56615 0
317 3 H 33.3097 3.76473 8.25275 0
318 3 H 35.1026 4.45977 -0.0153675 0
319 3 H 34.7324 4.87663 4.97937 0
320 3 H 31.3935 2.04127 9.46144 0
336 2 C 35.9798 0.747399 4.67909 0
343 2 C 33.19 4.88023 0.9464 0
344 2 C 31.8278 5.24423 0.728177 0
346 2 C 33.2846 3.69168 9.31163 0
347 2 C 34.4051 4.50128 9.2657 0
348 2 C 34.0708 4.75866 -0.147198 0
350 2 C 34.5732 4.62202 7.79585 0
351 2 C 33.6403 4.67215 2.33378 0
353 2 C 35.239 2.0403 4.78141 0
354 4 N 30.7422 3.22326 5.49682 0
363 7 O 34.8377 5.03208 2.7277 0
364 7 O 35.5599 5.12092 7.1024 0
366 7 O 35.9618 3.10416 4.72511 0
368 9 O 33.5266 3.96768 7.32224 0
369 7 O 32.7358 4.21872 3.13911 0
370 7 O 33.9407 2.08945 4.949 0
352 2 C 33.1725 7.13758 5.24087 0
365 7 O 34.4538 7.04684 5.01857 0
367 7 O 32.3936 6.10264 5.38784 0
309 3 H 30.5616 7.58949 5.48393 0
338 2 C 30.4738 9.69635 5.6825 0
310 3 H 34.3437 9.63943 5.17143 0
339 2 C 31.1449 8.49576 5.50149 0
340 2 C 32.5389 8.45565 5.35499 0
341 2 C 33.272 9.65749 5.32786 0
362 6 O 30.3943 7.83076 0.902345 0
312 3 H 28.7426 8.87657 6.37791 0
356 5 N 29.0387 9.71995 5.83359 0
152 3 H 9.16675 12.9093 7.15016 0
153 3 H 7.31829 12.76 5.29755 0
154 3 H 4.88834 12.4575 5.09959 0
181 2 C 6.65775 13.4812 5.76326 0
182 2 C 5.26893 13.3088 5.65057 0
207 4 N 2.41094 13.3908 5.37977 0
178 2 C 9.52278 13.8593 6.76982 0
174 3 H 10.9356 11.1119 1.23944 0
342 2 C 5.10911 20.1298 5.25701 0
361 6 O 4.56776 20.7629 6.22286 0
155 3 H 4.28024 16.1087 7.33305 0
156 3 H 6.70233 16.4023 7.51872 0
179 2 C 8.63309 14.8744 6.4104 0
180 2 C 7.18488 14.6136 6.41218 0
183 2 C 4.39039 14.2696 6.19306 0
184 2 C 3.00242 14.2522 5.98638 0
185 2 C 4.93141 15.3569 6.90169 0
186 2 C 6.31428 15.5301 7.00635 0
187 1 C 10.287 16.1004 5.34544 0
212 8 O 9.10053 16.1585 6.12433 0
504 5 N 4.32475 19.6842 4.12528 0
486 2 C 2.89317 19.6981 4.38283 0
457 3 H 2.72805 17.5619 4.39324 0
487 2 C 2.18545 18.496 4.47895 0
357 5 N 6.49701 19.7799 5.35873 0
388 3 H 7.05735 20.6591 5.33538 0
535 3 H 6.77853 19.2261 4.51837 0
460 3 H 4.61759 18.6978 3.93305 0
157 3 H 10.0455 15.7756 4.30884 0
222 7 O 14.7603 13.327 5.43133 0
160 3 H 12.8507 11.8837 5.73512 0
151 3 H 11.5669 13.3003 6.9359 0
168 3 H 14.6825 12.4919 1.92767 0
177 2 C 10.8796 14.0656 6.59849 0
196 2 C 15.199 12.8126 1.02904 0
175 2 C 12.6708 15.2478 5.6815 0
221 7 O 15.5179 14.8436 3.03783 0
173 3 H 12.4447 10.5095 1.6688 0
211 5 N 11.9164 11.3896 1.46904 0
205 2 C 15.5165 12.2807 5.56524 0
218 7 O 16.8227 12.3611 5.60226 0
170 3 H 17.8192 14.8193 0.00335389 0
200 2 C 16.9917 14.1235 -0.0449207 0
195 2 C 16.2878 13.7158 1.12713 0
203 2 C 16.5346 14.2519 2.47779 0
215 7 O 17.6438 13.9761 3.10905 0
158 3 H 10.7103 17.1255 5.28779 0
172 3 H 12.6771 17.2541 9.01659 0
247 3 H 11.221 19.1673 8.96111 0
284 5 N 13.1153 17.7581 9.8228 0
149 10 Zn 15.2474 15.3956 5.09354 0
169 3 H 15.2267 16.1207 8.05258 0
176 2 C 11.3137 15.1556 5.94997 0
198 2 C 15.0982 16.4964 9.05586 0
206 4 N 13.1749 16.1188 5.02121 0
219 7 O 16.3806 17.2309 4.72252 0
220 9 O 15.5353 15.6742 7.22752 0
248 3 H 12.1808 20.2608 8.12216 0
271 2 C 14.4122 17.1662 10.063 0
285 5 N 12.0019 19.854 9.06823 0
275 2 C 13.1886 19.1551 9.46608 0
288 6 O 14.2545 19.8265 9.67117 0
162 3 H 16.6347 19.7814 4.81929 0
193 2 C 17.6876 19.7778 4.56511 0
192 2 C 18.374 18.5586 4.43273 0
204 2 C 17.6844 17.2818 4.66061 0
159 3 H 16.335 14.9355 5.16996 0
150 10 Zn 17.9134 14.2739 5.28061 0
163 3 H 16.335 14.9355 5.16995 0
167 3 H 16.9272 14.6421 5.21912 0
171 3 H 17.1889 14.5538 5.23325 0
199 2 C 16.2888 15.8177 9.26573 0
202 2 C 16.5922 15.3036 7.9175 0
216 7 O 17.681 14.7528 7.45872 0
217 7 O 18.444 16.2505 4.84388 0
197 2 C 14.7389 12.3532 -0.213714 0
201 2 C 12.4723 12 0.302527 0
210 5 N 13.6347 11.4358 -0.31631 0
214 6 O 11.9921 13.1032 -0.123251 0
190 2 C 20.4478 19.7576 3.97696 0
161 3 H 20.3073 17.6263 4.05979 0
191 2 C 19.7601 18.5563 4.15909 0
450 3 H 22.2524 12.4963 4.99953 0
478 2 C 22.7557 13.364 5.40932 0
503 4 N 19.9684 13.5776 5.43422 0
448 3 H 26.7624 12.5634 5.54343 0
474 2 C 27.1308 13.5746 5.44526 0
449 3 H 24.662 12.583 4.89166 0
477 2 C 24.1479 13.4124 5.35644 0
46 2 C 22.707 19.1914 4.58719 0
65 6 O 22.5827 19.5133 5.81658 0
208 5 N 21.8401 19.7874 3.59594 0
451 3 H 22.1788 16.4213 6.81134 0
479 2 C 22.0251 14.4509 5.92332 0
480 2 C 20.6306 14.4981 5.8515 0
481 2 C 22.7194 15.5656 6.42313 0
454 3 H 28.198 16.2788 6.72465 0
452 3 H 24.6255 16.5016 6.72559 0
483 1 C 28.1191 16.1471 5.62277 0
475 2 C 26.2987 14.691 5.60773 0
476 2 C 24.8432 14.5442 5.82196 0
482 2 C 24.1163 15.612 6.37415 0
508 8 O 26.7627 15.9556 5.25508 0
61 5 N 23.8705 18.45 4.19079 0
164 3 H 21.9368 19.282 2.68535 0
239 3 H 23.9186 18.3895 3.14891 0
92 3 H 24.7103 18.9905 4.50078 0
473 2 C 28.4654 13.7669 5.13586 0
470 3 H 30.6862 9.81683 2.02877 0
447 3 H 29.0723 12.899 4.92482 0
469 3 H 32.2846 10.1362 2.03006 0
507 5 N 31.3498 10.5992 1.95814 0
456 3 H 30.6841 11.8026 5.90672 0
484 2 C 32.6067 10.8832 5.51765 0
485 2 C 31.2105 10.8792 5.73117 0
501 2 C 33.3146 12.1844 5.44338 0
514 7 O 34.6217 12.2389 5.45149 0
518 7 O 32.565 13.2425 5.33808 0
466 3 H 35.1247 15.5124 -0.108703 0
496 2 C 34.5879 14.5734 -0.137225 0
464 3 H 33.3634 12.1173 1.89827 0
492 2 C 33.5748 12.6422 0.97782 0
491 2 C 34.253 13.869 1.05272 0
499 2 C 34.4242 14.378 2.42055 0
511 7 O 35.4762 14.0176 3.10178 0
517 7 O 33.3804 14.948 2.9557 0
453 3 H 28.4702 17.0855 5.14463 0
543 3 H 29.4353 19.3614 8.78953 0
471 2 C 30.385 15.092 5.07823 0
472 2 C 29.0006 14.9928 5.17942 0
544 3 H 30.582 20.2331 7.92468 0
458 3 H 34.4278 19.6893 4.97539 0
489 2 C 35.4965 19.6982 4.79854 0
468 3 H 30.661 17.2518 8.80524 0
580 5 N 31.0746 17.677 9.66846 0
581 5 N 30.3168 19.915 8.8846 0
571 2 C 31.3599 19.0546 9.35014 0
455 3 H 34.1482 14.834 5.15492 0
445 10 Zn 33.0673 15.3356 5.0747 0
446 10 Zn 35.7187 14.1359 5.28304 0
459 3 H 34.1482 14.834 5.15492 0
463 3 H 34.7164 14.5165 5.24439 0
465 3 H 33.0813 15.8848 8.02307 0
467 3 H 34.9896 14.4265 5.24696 0
488 2 C 36.2007 18.4885 4.69908 0