Created by Ryther's code on 2025-08-01 12:16:50.351737, modified by xyan11@uic.edu. 

    448 atoms
    536 bonds
    1088 angles
    992 dihedrals
    192 impropers

    7 atom types
    14 bond types
    32 angle types
    6 dihedral types
    2 improper types

0.00000000 22.00405154 xlo xhi
0.00000000 21.36222794 ylo yhi
0.00000000 21.29815385 zlo zhi
0.01907794 -0.00365639 1.65350047 xy xz yz 

Masses 

    1    12.0107  #   C
    2    1.00794  #   H
    3    14.0067  #   N
    4    15.9994  #   O
    5    15.9994  #   O
    6    15.9994  #   O
    7      65.38  #  Zn

Pair Coeffs

    1       0.10500      3.43085  #  C_R C_R
    2       0.04400      2.57113  #  H_ H_
    3       0.06900      3.26069  #  N_2 N_2
    4       0.06000      3.11815  #  O_2_M O_2_M
    5       0.06000      3.11815  #  O_3_M O_3_M
    6       0.06000      3.11815  #  O_3_f O_3_f
    7       0.12400      2.46155  #  Zn4+2 Zn4+2

Bond Coeffs

    1     104.44141      2.12294  #  O_2_M Zn4+2 bond order=0.5
    2     103.61325      2.20128  #  N_2 Zn4+2 bond order=0.5
    3     104.43232      2.12294  #  O_3_f Zn4+2 bond order=0.5
    4      48.90184      1.84943  #  H_ Zn4+2 bond order=0.5
    5     100.76218      2.14847  #  O_3_M Zn4+2 bond order=0.5
    6     357.44038      1.08142  #  C_R H_ bond order=1.0
    7     602.38274      0.96643  #  H_ O_3_f bond order=1.0
    8     559.99521      0.99025  #  H_ O_3_M bond order=1.0
    9     931.53598      1.20133  #  C_R N_2 bond order=3.0
    10    462.65505      1.37926  #  C_R C_R bond order=1.5
    11    391.66951      1.45800  #  C_R C_R bond order=1.0
    12    714.55744      1.26901  #  C_R O_2_M bond order=1.5
    13    714.49531      1.26901  #  C_R O_3_f bond order=1.5
    14    678.02790      1.29140  #  C_R O_3_M bond order=1.5

Angle Coeffs

    1  cosine/periodic         97.36576            1            4  #  O_2_M Zn4+2 O_2_M
    2  cosine/periodic        101.82219            1            4  #  N_2 Zn4+2 O_2_M
    3  cosine/periodic         97.35730            1            4  #  O_2_M Zn4+2 O_3_f
    4  cosine/periodic         36.20045            1            4  #  H_ Zn4+2 O_2_M
    5  cosine/periodic        101.81334            1            4  #  N_2 Zn4+2 O_3_f
    6  cosine/periodic         37.39156            1            4  #  H_ Zn4+2 N_2
    7  cosine/periodic         36.19731            1            4  #  H_ Zn4+2 O_3_f
    8  cosine/periodic         14.11273            1            4  #  H_ Zn4+2 H_
    9  cosine/periodic        100.10309            1            4  #  N_2 Zn4+2 O_3_M
    10 cosine/periodic         95.61832            1            4  #  O_2_M Zn4+2 O_3_M
    11 cosine/periodic         35.40556            1            4  #  H_ Zn4+2 O_3_M
    12 cosine/periodic         44.75218            1            1  #  O_3_f H_ Zn4+2
    13 cosine/periodic         43.63912            1            1  #  O_3_M H_ Zn4+2
    14 cosine/periodic        179.74893           -1            3  #  C_R C_R N_2
    15 cosine/periodic        102.18328           -1            3  #  C_R C_R C_R
    16 cosine/periodic        111.29751           -1            3  #  C_R C_R C_R
    17 cosine/periodic         57.28902           -1            3  #  C_R C_R H_
    18 cosine/periodic        137.71425           -1            3  #  C_R C_R O_2_M
    19 cosine/periodic        206.77843           -1            3  #  O_2_M C_R O_2_M
    20 cosine/periodic        137.70227           -1            3  #  C_R C_R O_3_f
    21 cosine/periodic        206.76045           -1            3  #  O_2_M C_R O_3_f
    22 cosine/periodic        134.57449           -1            3  #  C_R C_R O_3_M
    23 cosine/periodic        201.38050           -1            3  #  O_2_M C_R O_3_M
    24 fourier                 84.89470      0.36401      0.41847      0.28800  #  C_R N_2 Zn4+2
    25 cosine/periodic         37.72922           -1            3  #  C_R O_2_M Zn4+2
    26 fourier                 41.31289      0.30023      0.26733      0.26675  #  H_ O_3_M Zn4+2
    27 fourier                 99.02913      0.30023      0.26733      0.26675  #  C_R O_3_M Zn4+2
    28 fourier                203.65891      0.30023      0.26733      0.26675  #  C_R O_3_M H_
    29 fourier                 39.59088      0.34375      0.37500      0.28125  #  H_ O_3_f Zn4+2
    30 fourier                 92.63549      0.34375      0.37500      0.28125  #  C_R O_3_f Zn4+2
    31 fourier                114.20321      0.34375      0.37500      0.28125  #  H_ O_3_f H_
    32 fourier                191.55689      0.34375      0.37500      0.28125  #  C_R O_3_f H_

Dihedral Coeffs

    1      27.96100           -1            2  #  X C_R N_2 X bond order=3.0
    2       6.73711           -1            2  #  X C_R C_R X bond order=1.5
    3       1.25000           -1            2  #  X C_R C_R X bond order=1.0
    4       6.73711           -1            2  #  X C_R O_2_M X bond order=1.5
    5       0.00000           -1            2  #  X C_R O_3_f X bond order=1.5
    6       0.31957           -1            2  #  X C_R O_3_M X bond order=1.5

Improper Coeffs

    1       2.00000      1.00000     -1.00000      0.00000            1  #  C_R X X X O_2 present=False
    2      16.66667      1.00000     -1.00000      0.00000            1  #  C_R X X X O_2 present=True

Atoms # a, b, c, alpha, beta, gamma: 22.0040515430, 21.3622364565, 21.3622432009, 85.5607082998, 90.0098068237, 89.9488309492 $$$atoms$$$

    1 1     7      0.00000      3.59205      4.45655      6.59196   #   Zn1   0.16313631   0.18466127   0.30950845
    2 1     7      0.00000      6.52244      4.45398      6.59262   #   Zn2   0.29631161   0.18453847   0.30953951
    3 1     2      0.00000      9.33228      7.30637      7.88810   #    H1   0.42390617   0.31335553   0.37036529
    4 1     2      0.00000      2.58575      6.51445      8.87623   #    H2   0.11734526   0.27269329   0.41676063
    5 1     2      0.00000      3.82752      8.46680      9.71249   #    H3   0.17370885   0.36104683   0.45602491
    6 1     2      0.00000      2.96351     10.75739      9.33320   #    H4   0.13434596   0.46965111   0.43821648
    7 1     2      0.00000      0.84621     11.09389      8.09212   #    H5   0.03809533   0.48991372   0.37994461
    8 1     2      0.00000     10.59656      9.16590      7.22219   #    H6   0.48128008   0.40282317   0.33909946
    9 1     2      0.00000      4.46325      3.71842      5.52114   #    H7   0.20274737   0.15400000   0.25923072
   10 1     2      0.00000      6.10990     11.01523      8.48179   #    H8   0.27731757   0.48481536   0.39824039
   11 1     2      0.00000      6.10772      8.57455      8.48178   #    H9   0.27731750   0.37056334   0.39824038
   12 1     2      0.00000      4.01469      8.57684      4.70357   #   H10   0.18215554   0.38440175   0.22084388
   13 1     2      0.00000      4.01686     11.01667      4.70357   #   H11   0.18215552   0.49861397   0.22084387
   14 1     2      0.00000      4.46458      5.19317      5.52113   #   H12   0.20274759   0.22303533   0.25923055
   15 1     2      0.00000      6.02604      5.14516      5.79930   #   H13   0.27371527   0.21977701   0.27229135
   16 1     2      0.00000      3.34942      2.81872      2.58643   #   H14   0.15213243   0.12254924   0.12143936
   17 1     2      0.00000      3.34984      2.62981      0.15308   #   H15   0.15213242   0.12254926   0.00718734
   18 1     2      0.00000      6.76451      6.09130     10.59862   #   H16   0.30728985   0.24662559   0.49763076
   19 1     2      0.00000      6.76592      5.45340      2.38205   #   H17   0.30728981   0.24662557   0.11184294
   20 1     2      0.00000      6.02579      5.25931      7.26963   #   H18   0.27371546   0.21977679   0.34132683
   21 1     1      0.00000      0.99005      5.36477      6.98530   #    C1   0.04485262   0.22574722   0.32797699
   22 1     1      0.00000      0.23708      6.50003      7.47854   #    C2   0.01059249   0.27709783   0.35113572
   23 1     1      0.00000      9.89404      6.47496      7.48249   #    C3   0.44946559   0.27590971   0.35132089
   24 1     1      0.00000      9.13297      5.35218      6.98878   #    C4   0.41491780   0.22514529   0.32813995
   25 1     1      0.00000      0.98092      7.68081      7.99460   #    C5   0.04435494   0.33049651   0.37536577
   26 1     1      0.00000      2.19261      7.50641      8.69155   #    C6   0.09943640   0.31979954   0.40808944
   27 1     1      0.00000      2.90045      8.61194      9.17300   #    C7   0.13156526   0.36980162   0.43069452
   28 1     1      0.00000      2.41327      9.90306      8.96057   #    C8   0.10937027   0.43101313   0.42072052
   29 1     1      0.00000      1.21833     10.09201      8.26348   #    C9   0.05504925   0.44239152   0.38799041
   30 1     1      0.00000      0.50530      8.99049      7.78030   #   C10   0.02268444   0.39258378   0.36530380
   31 1     1      0.00000      5.05380      0.52734      6.59229   #   C11   0.22972688   0.00072743   0.30952412
   32 1     1      0.00000      5.64949     10.49428      7.65152   #   C12   0.25640554   0.46344655   0.35925724
   33 1     1      0.00000      5.64824      9.09631      7.65152   #   C13   0.25640553   0.39800543   0.35925721
   34 1     1      0.00000      5.06082      8.38319      6.59229   #   C14   0.22972687   0.36847263   0.30952414
   35 1     1      0.00000      4.47516      9.09731      5.53394   #   C15   0.20307029   0.40574779   0.25983212
   36 1     1      0.00000      4.47641     10.49538      5.53394   #   C16   0.20307030   0.47119392   0.25983214
   37 1     1      0.00000      5.05798      4.15123      2.67615   #   C17   0.22972689   0.18460001   0.12565151
   38 1     1      0.00000      4.10029      3.35735      2.02182   #   C18   0.18622851   0.14981521   0.09492943
   39 1     1      0.00000      4.10053      3.24915      0.62805   #   C19   0.18622847   0.14981525   0.02948836
   40 1     1      0.00000      5.05664      4.75930     10.50844   #   C20   0.22972684   0.18460004   0.49339673
   41 1     1      0.00000      6.01537      4.72581      0.51368   #   C21   0.27318931   0.21935602   0.02411851
   42 1     1      0.00000      6.01513      4.83403      1.90756   #   C22   0.27318930   0.21935601   0.08956466
   43 1     1      0.00000      5.05682      4.59107      9.02797   #   C23   0.22972551   0.18210557   0.42388502
   44 1     1      0.00000      5.05771      4.31947      4.15661   #   C24   0.22972387   0.18709497   0.19516301
   45 1     1      0.00000      5.05943      6.89414      6.53915   #   C25   0.22972374   0.29896095   0.30702899
   46 1     1      0.00000      5.05509      2.01638      6.64543   #   C26   0.22972560   0.07023883   0.31201908
   47 1     3      0.00000      1.59214      4.45831      6.59140   #    N1   0.07224796   0.18474555   0.30948221
   48 1     3      0.00000      8.52236      4.45232      6.59307   #    N2   0.38719996   0.18445932   0.30956064
   49 1     4      0.00000      6.16969      4.37489      4.65372   #    O1   0.28026219   0.18788297   0.21850349
   50 1     4      0.00000      6.16894      4.53369      8.53136   #    O2   0.28026416   0.18122390   0.40056793
   51 1     5      0.00000      6.17104      6.39344      6.52162   #    O3   0.28026205   0.27558610   0.30620586
   52 1     4      0.00000      6.16759      2.51514      6.66346   #    O4   0.28026426   0.09352077   0.31286552
   53 1     4      0.00000      3.94691      6.39539      6.52112   #    O5   0.17918362   0.27567898   0.30618245
   54 1     4      0.00000      3.94481      4.53565      8.53086   #    O6   0.17918573   0.18131753   0.40054449
   55 1     6      0.00000      3.94556      4.37685      4.65321   #    O7   0.17918377   0.18797658   0.21847930
   56 1     4      0.00000      3.94346      2.51710      6.66294   #    O8   0.17918583   0.09361438   0.31284137
   57 1     7      0.00000      3.59022      5.28330     17.24104   #   Zn1   0.16313631   0.18466127   0.80950845
   58 1     7      0.00000      6.52062      5.28073     17.24170   #   Zn2   0.29631161   0.18453847   0.80953951
   59 1     2      0.00000      9.33045      8.13312     18.53717   #    H1   0.42390617   0.31335553   0.87036529
   60 1     2      0.00000      2.58392      7.34120     19.52531   #    H2   0.11734526   0.27269329   0.91676063
   61 1     2      0.00000      3.82569      9.29355     20.36157   #    H3   0.17370885   0.36104683   0.95602491
   62 1     2      0.00000      2.96168     11.58414     19.98228   #    H4   0.13434596   0.46965111   0.93821648
   63 1     2      0.00000      0.84438     11.92064     18.74120   #    H5   0.03809533   0.48991372   0.87994461
   64 1     2      0.00000     10.59473      9.99265     17.87127   #    H6   0.48128008   0.40282317   0.83909946
   65 1     2      0.00000      4.46143      4.54517     16.17021   #    H7   0.20274737   0.15400000   0.75923072
   66 1     2      0.00000      6.10808     11.84198     19.13086   #    H8   0.27731757   0.48481536   0.89824039
   67 1     2      0.00000      6.10589      9.40130     19.13086   #    H9   0.27731750   0.37056334   0.89824038
   68 1     2      0.00000      4.01286      9.40359     15.35264   #   H10   0.18215554   0.38440175   0.72084388
   69 1     2      0.00000      4.01504     11.84342     15.35264   #   H11   0.18215552   0.49861397   0.72084387
   70 1     2      0.00000      4.46275      6.01992     16.17021   #   H12   0.20274759   0.22303533   0.75923055
   71 1     2      0.00000      6.02421      5.97191     16.44838   #   H13   0.27371527   0.21977701   0.77229135
   72 1     2      0.00000      3.34760      3.64547     13.23551   #   H14   0.15213243   0.12254924   0.62143936
   73 1     2      0.00000      3.34801      3.45656     10.80215   #   H15   0.15213242   0.12254926   0.50718734
   74 1     2      0.00000      6.76268      6.91805     21.24769   #   H16   0.30728985   0.24662559   0.99763076
   75 1     2      0.00000      6.76409      6.28015     13.03113   #   H17   0.30728981   0.24662557   0.61184294
   76 1     2      0.00000      6.02397      6.08606     17.91871   #   H18   0.27371546   0.21977679   0.84132683
   77 1     1      0.00000      0.98822      6.19152     17.63438   #    C1   0.04485262   0.22574722   0.82797699
   78 1     1      0.00000      0.23525      7.32678     18.12762   #    C2   0.01059249   0.27709783   0.85113572
   79 1     1      0.00000      9.89221      7.30171     18.13156   #    C3   0.44946559   0.27590971   0.85132089
   80 1     1      0.00000      9.13114      6.17893     17.63785   #    C4   0.41491780   0.22514529   0.82813995
   81 1     1      0.00000      0.97909      8.50756     18.64367   #    C5   0.04435494   0.33049651   0.87536577
   82 1     1      0.00000      2.19078      8.33316     19.34063   #    C6   0.09943640   0.31979954   0.90808944
   83 1     1      0.00000      2.89862      9.43869     19.82208   #    C7   0.13156526   0.36980162   0.93069452
   84 1     1      0.00000      2.41145     10.72981     19.60965   #    C8   0.10937027   0.43101313   0.92072052
   85 1     1      0.00000      1.21650     10.91876     18.91256   #    C9   0.05504925   0.44239152   0.88799041
   86 1     1      0.00000      0.50348      9.81724     18.42937   #   C10   0.02268444   0.39258378   0.86530380
   87 1     1      0.00000      5.05198      1.35409     17.24137   #   C11   0.22972688   0.00072743   0.80952412
   88 1     1      0.00000      5.64766     11.32103     18.30059   #   C12   0.25640554   0.46344655   0.85925724
   89 1     1      0.00000      5.64641      9.92306     18.30059   #   C13   0.25640553   0.39800543   0.85925721
   90 1     1      0.00000      5.05899      9.20994     17.24137   #   C14   0.22972687   0.36847263   0.80952414
   91 1     1      0.00000      4.47333      9.92406     16.18302   #   C15   0.20307029   0.40574779   0.75983212
   92 1     1      0.00000      4.47458     11.32213     16.18302   #   C16   0.20307030   0.47119392   0.75983214
   93 1     1      0.00000      5.05616      4.97798     13.32522   #   C17   0.22972689   0.18460001   0.62565151
   94 1     1      0.00000      4.09846      4.18410     12.67090   #   C18   0.18622851   0.14981521   0.59492943
   95 1     1      0.00000      4.09870      4.07590     11.27712   #   C19   0.18622847   0.14981525   0.52948836
   96 1     1      0.00000      5.05481      5.58605     21.15752   #   C20   0.22972684   0.18460004   0.99339673
   97 1     1      0.00000      6.01354      5.55256     11.16276   #   C21   0.27318931   0.21935602   0.52411851
   98 1     1      0.00000      6.01330      5.66078     12.55664   #   C22   0.27318930   0.21935601   0.58956466
   99 1     1      0.00000      5.05499      5.41782     19.67705   #   C23   0.22972551   0.18210557   0.92388502
  100 1     1      0.00000      5.05588      5.14622     14.80569   #   C24   0.22972387   0.18709497   0.69516301
  101 1     1      0.00000      5.05761      7.72089     17.18823   #   C25   0.22972374   0.29896095   0.80702899
  102 1     1      0.00000      5.05326      2.84313     17.29451   #   C26   0.22972560   0.07023883   0.81201908
  103 1     3      0.00000      1.59031      5.28506     17.24048   #    N1   0.07224796   0.18474555   0.80948221
  104 1     3      0.00000      8.52053      5.27907     17.24215   #    N2   0.38719996   0.18445932   0.80956064
  105 1     4      0.00000      6.16786      5.20164     15.30280   #    O1   0.28026219   0.18788297   0.71850349
  106 1     4      0.00000      6.16711      5.36044     19.18043   #    O2   0.28026416   0.18122390   0.90056793
  107 1     5      0.00000      6.16921      7.22019     17.17070   #    O3   0.28026205   0.27558610   0.80620586
  108 1     4      0.00000      6.16576      3.34189     17.31253   #    O4   0.28026426   0.09352077   0.81286552
  109 1     4      0.00000      3.94508      7.22214     17.17020   #    O5   0.17918362   0.27567898   0.80618245
  110 1     4      0.00000      3.94298      5.36240     19.17994   #    O6   0.17918573   0.18131753   0.90054449
  111 1     6      0.00000      3.94373      5.20360     15.30228   #    O7   0.17918377   0.18797658   0.71847930
  112 1     4      0.00000      3.94163      3.34385     17.31202   #    O8   0.17918583   0.09361438   0.81284137
  113 1     7      0.00000      3.60159     15.13766      6.59196   #   Zn1   0.16313631   0.68466127   0.30950845
  114 1     7      0.00000      6.53198     15.13509      6.59262   #   Zn2   0.29631161   0.68453847   0.30953951
  115 1     2      0.00000      9.34182     17.98749      7.88810   #    H1   0.42390617   0.81335553   0.37036529
  116 1     2      0.00000      2.59529     17.19556      8.87623   #    H2   0.11734526   0.77269329   0.41676063
  117 1     2      0.00000      3.83706     19.14792      9.71249   #    H3   0.17370885   0.86104683   0.45602491
  118 1     2      0.00000      2.97305     21.43850      9.33320   #    H4   0.13434596   0.96965111   0.43821648
  119 1     2      0.00000      0.85575     21.77500      8.09212   #    H5   0.03809533   0.98991372   0.37994461
  120 1     2      0.00000     10.60610     19.84702      7.22219   #    H6   0.48128008   0.90282317   0.33909946
  121 1     2      0.00000      4.47279     14.39954      5.52114   #    H7   0.20274737   0.65400000   0.25923072
  122 1     2      0.00000      6.11944     21.69634      8.48179   #    H8   0.27731757   0.98481536   0.39824039
  123 1     2      0.00000      6.11726     19.25566      8.48178   #    H9   0.27731750   0.87056334   0.39824038
  124 1     2      0.00000      4.02422     19.25796      4.70357   #   H10   0.18215554   0.88440175   0.22084388
  125 1     2      0.00000      4.02640     21.69778      4.70357   #   H11   0.18215552   0.99861397   0.22084387
  126 1     2      0.00000      4.47411     15.87428      5.52113   #   H12   0.20274759   0.72303533   0.25923055
  127 1     2      0.00000      6.03558     15.82627      5.79930   #   H13   0.27371527   0.71977701   0.27229135
  128 1     2      0.00000      3.35896     13.49984      2.58643   #   H14   0.15213243   0.62254924   0.12143936
  129 1     2      0.00000      3.35938     13.31092      0.15308   #   H15   0.15213242   0.62254926   0.00718734
  130 1     2      0.00000      6.77405     16.77242     10.59862   #   H16   0.30728985   0.74662559   0.49763076
  131 1     2      0.00000      6.77546     16.13452      2.38205   #   H17   0.30728981   0.74662557   0.11184294
  132 1     2      0.00000      6.03533     15.94042      7.26963   #   H18   0.27371546   0.71977679   0.34132683
  133 1     1      0.00000      0.99959     16.04589      6.98530   #    C1   0.04485262   0.72574722   0.32797699
  134 1     1      0.00000      0.24662     17.18114      7.47854   #    C2   0.01059249   0.77709783   0.35113572
  135 1     1      0.00000      9.90358     17.15607      7.48249   #    C3   0.44946559   0.77590971   0.35132089
  136 1     1      0.00000      9.14251     16.03330      6.98878   #    C4   0.41491780   0.72514529   0.32813995
  137 1     1      0.00000      0.99046     18.36192      7.99460   #    C5   0.04435494   0.83049651   0.37536577
  138 1     1      0.00000      2.20215     18.18752      8.69155   #    C6   0.09943640   0.81979954   0.40808944
  139 1     1      0.00000      2.90999     19.29305      9.17300   #    C7   0.13156526   0.86980162   0.43069452
  140 1     1      0.00000      2.42281     20.58418      8.96057   #    C8   0.10937027   0.93101313   0.42072052
  141 1     1      0.00000      1.22787     20.77312      8.26348   #    C9   0.05504925   0.94239152   0.38799041
  142 1     1      0.00000      0.51484     19.67161      7.78030   #   C10   0.02268444   0.89258378   0.36530380
  143 1     1      0.00000      5.06334     11.20845      6.59229   #   C11   0.22972688   0.50072743   0.30952412
  144 1     1      0.00000      5.65903     21.17540      7.65152   #   C12   0.25640554   0.96344655   0.35925724
  145 1     1      0.00000      5.65778     19.77743      7.65152   #   C13   0.25640553   0.89800543   0.35925721
  146 1     1      0.00000      5.07036     19.06431      6.59229   #   C14   0.22972687   0.86847263   0.30952414
  147 1     1      0.00000      4.48470     19.77842      5.53394   #   C15   0.20307029   0.90574779   0.25983212
  148 1     1      0.00000      4.48595     21.17650      5.53394   #   C16   0.20307030   0.97119392   0.25983214
  149 1     1      0.00000      5.06752     14.83235      2.67615   #   C17   0.22972689   0.68460001   0.12565151
  150 1     1      0.00000      4.10983     14.03847      2.02182   #   C18   0.18622851   0.64981521   0.09492943
  151 1     1      0.00000      4.11007     13.93026      0.62805   #   C19   0.18622847   0.64981525   0.02948836
  152 1     1      0.00000      5.06618     15.44041     10.50844   #   C20   0.22972684   0.68460004   0.49339673
  153 1     1      0.00000      6.02491     15.40693      0.51368   #   C21   0.27318931   0.71935602   0.02411851
  154 1     1      0.00000      6.02467     15.51514      1.90756   #   C22   0.27318930   0.71935601   0.08956466
  155 1     1      0.00000      5.06636     15.27219      9.02797   #   C23   0.22972551   0.68210557   0.42388502
  156 1     1      0.00000      5.06725     15.00058      4.15661   #   C24   0.22972387   0.68709497   0.19516301
  157 1     1      0.00000      5.06897     17.57526      6.53915   #   C25   0.22972374   0.79896095   0.30702899
  158 1     1      0.00000      5.06463     12.69750      6.64543   #   C26   0.22972560   0.57023883   0.31201908
  159 1     3      0.00000      1.60168     15.13942      6.59140   #    N1   0.07224796   0.68474555   0.30948221
  160 1     3      0.00000      8.53189     15.13343      6.59307   #    N2   0.38719996   0.68445932   0.30956064
  161 1     4      0.00000      6.17923     15.05601      4.65372   #    O1   0.28026219   0.68788297   0.21850349
  162 1     4      0.00000      6.17848     15.21480      8.53136   #    O2   0.28026416   0.68122390   0.40056793
  163 1     5      0.00000      6.18058     17.07456      6.52162   #    O3   0.28026205   0.77558610   0.30620586
  164 1     4      0.00000      6.17713     13.19625      6.66346   #    O4   0.28026426   0.59352077   0.31286552
  165 1     4      0.00000      3.95644     17.07650      6.52112   #    O5   0.17918362   0.77567898   0.30618245
  166 1     4      0.00000      3.95435     15.21676      8.53086   #    O6   0.17918573   0.68131753   0.40054449
  167 1     6      0.00000      3.95510     15.05797      4.65321   #    O7   0.17918377   0.68797658   0.21847930
  168 1     4      0.00000      3.95300     13.19821      6.66294   #    O8   0.17918583   0.59361438   0.31284137
  169 1     7      0.00000      3.59976     15.96441     17.24104   #   Zn1   0.16313631   0.68466127   0.80950845
  170 1     7      0.00000      6.53016     15.96184     17.24170   #   Zn2   0.29631161   0.68453847   0.80953951
  171 1     2      0.00000      9.33999     18.81424     18.53717   #    H1   0.42390617   0.81335553   0.87036529
  172 1     2      0.00000      2.59346     18.02231     19.52531   #    H2   0.11734526   0.77269329   0.91676063
  173 1     2      0.00000      3.83523     19.97467     20.36157   #    H3   0.17370885   0.86104683   0.95602491
  174 1     2      0.00000      2.97122     22.26525     19.98228   #    H4   0.13434596   0.96965111   0.93821648
  175 1     2      0.00000      0.85392     22.60175     18.74120   #    H5   0.03809533   0.98991372   0.87994461
  176 1     2      0.00000     10.60427     20.67377     17.87127   #    H6   0.48128008   0.90282317   0.83909946
  177 1     2      0.00000      4.47096     15.22629     16.17021   #    H7   0.20274737   0.65400000   0.75923072
  178 1     2      0.00000      6.11761     22.52309     19.13086   #    H8   0.27731757   0.98481536   0.89824039
  179 1     2      0.00000      6.11543     20.08241     19.13086   #    H9   0.27731750   0.87056334   0.89824038
  180 1     2      0.00000      4.02240     20.08471     15.35264   #   H10   0.18215554   0.88440175   0.72084388
  181 1     2      0.00000      4.02458     22.52454     15.35264   #   H11   0.18215552   0.99861397   0.72084387
  182 1     2      0.00000      4.47229     16.70103     16.17021   #   H12   0.20274759   0.72303533   0.75923055
  183 1     2      0.00000      6.03375     16.65302     16.44838   #   H13   0.27371527   0.71977701   0.77229135
  184 1     2      0.00000      3.35713     14.32659     13.23551   #   H14   0.15213243   0.62254924   0.62143936
  185 1     2      0.00000      3.35755     14.13767     10.80215   #   H15   0.15213242   0.62254926   0.50718734
  186 1     2      0.00000      6.77222     17.59917     21.24769   #   H16   0.30728985   0.74662559   0.99763076
  187 1     2      0.00000      6.77363     16.96127     13.03113   #   H17   0.30728981   0.74662557   0.61184294
  188 1     2      0.00000      6.03350     16.76717     17.91871   #   H18   0.27371546   0.71977679   0.84132683
  189 1     1      0.00000      0.99776     16.87264     17.63438   #    C1   0.04485262   0.72574722   0.82797699
  190 1     1      0.00000      0.24479     18.00789     18.12762   #    C2   0.01059249   0.77709783   0.85113572
  191 1     1      0.00000      9.90175     17.98282     18.13156   #    C3   0.44946559   0.77590971   0.85132089
  192 1     1      0.00000      9.14068     16.86005     17.63785   #    C4   0.41491780   0.72514529   0.82813995
  193 1     1      0.00000      0.98863     19.18867     18.64367   #    C5   0.04435494   0.83049651   0.87536577
  194 1     1      0.00000      2.20032     19.01427     19.34063   #    C6   0.09943640   0.81979954   0.90808944
  195 1     1      0.00000      2.90816     20.11980     19.82208   #    C7   0.13156526   0.86980162   0.93069452
  196 1     1      0.00000      2.42098     21.41093     19.60965   #    C8   0.10937027   0.93101313   0.92072052
  197 1     1      0.00000      1.22604     21.59988     18.91256   #    C9   0.05504925   0.94239152   0.88799041
  198 1     1      0.00000      0.51301     20.49836     18.42937   #   C10   0.02268444   0.89258378   0.86530380
  199 1     1      0.00000      5.06152     12.03520     17.24137   #   C11   0.22972688   0.50072743   0.80952412
  200 1     1      0.00000      5.65720     22.00215     18.30059   #   C12   0.25640554   0.96344655   0.85925724
  201 1     1      0.00000      5.65595     20.60418     18.30059   #   C13   0.25640553   0.89800543   0.85925721
  202 1     1      0.00000      5.06853     19.89106     17.24137   #   C14   0.22972687   0.86847263   0.80952414
  203 1     1      0.00000      4.48287     20.60517     16.18302   #   C15   0.20307029   0.90574779   0.75983212
  204 1     1      0.00000      4.48412     22.00325     16.18302   #   C16   0.20307030   0.97119392   0.75983214
  205 1     1      0.00000      5.06570     15.65910     13.32522   #   C17   0.22972689   0.68460001   0.62565151
  206 1     1      0.00000      4.10800     14.86522     12.67090   #   C18   0.18622851   0.64981521   0.59492943
  207 1     1      0.00000      4.10824     14.75701     11.27712   #   C19   0.18622847   0.64981525   0.52948836
  208 1     1      0.00000      5.06435     16.26716     21.15752   #   C20   0.22972684   0.68460004   0.99339673
  209 1     1      0.00000      6.02308     16.23368     11.16276   #   C21   0.27318931   0.71935602   0.52411851
  210 1     1      0.00000      6.02284     16.34189     12.55664   #   C22   0.27318930   0.71935601   0.58956466
  211 1     1      0.00000      5.06453     16.09894     19.67705   #   C23   0.22972551   0.68210557   0.92388502
  212 1     1      0.00000      5.06542     15.82733     14.80569   #   C24   0.22972387   0.68709497   0.69516301
  213 1     1      0.00000      5.06714     18.40201     17.18823   #   C25   0.22972374   0.79896095   0.80702899