Created by Ryther's code on 2025-07-29 22:46:56.474036, modified by xyan11@uic.edu. 

    448 atoms
    528 bonds
    952 angles
    1056 dihedrals
    208 impropers

    7 atom types
    12 bond types
    24 angle types
    6 dihedral types
    2 improper types

0.00000000 28.11890241 xlo xhi
0.00000000 29.98810297 ylo yhi
0.00000000 21.29822613 zlo zhi
-0.02778448 0.01945502 1.65245869 xy xz yz 

Masses 

    1    12.0107  #   C
    2    1.00794  #   H
    3    14.0067  #   N
    4    15.9994  #   O
    5    15.9994  #   O
    6     32.065  #   S
    7      65.38  #  Zn

Pair Coeffs

    1       0.10500      3.43085  #  C_R C_R
    2       0.04400      2.57113  #  H_ H_
    3       0.06900      3.26069  #  N_2 N_2
    4       0.06000      3.11815  #  O_2_M O_2_M
    5       0.06000      3.11815  #  O_3_M O_3_M
    6       0.27400      3.59478  #  S_3 S_3
    7       0.06000      2.58361  #  Zn6f3 Zn6f3

Bond Coeffs

    1      54.94924      2.40433  #  O_2_M Zn6f3 bond order=0.5
    2      24.34887      2.13340  #  H_ Zn6f3 bond order=0.5
    3      53.24274      2.42975  #  O_3_M Zn6f3 bond order=0.5
    4      55.07699      2.48452  #  N_2 Zn6f3 bond order=0.5
    5     357.44038      1.08142  #  C_R H_ bond order=1.0
    6     559.99521      0.99025  #  H_ O_3_M bond order=1.0
    7     931.53598      1.20133  #  C_R N_2 bond order=3.0
    8     462.65505      1.37926  #  C_R C_R bond order=1.5
    9     301.29678      1.78592  #  C_R S_3 bond order=1.0
    10    391.66951      1.45800  #  C_R C_R bond order=1.0
    11    714.55744      1.26901  #  C_R O_2_M bond order=1.5
    12    678.02790      1.29140  #  C_R O_3_M bond order=1.5

Angle Coeffs

    1  cosine/periodic         67.02484            1            4  #  O_2_M Zn6f3 O_2_M
    2  cosine/periodic         24.38538            1            4  #  H_ Zn6f3 O_2_M
    3  cosine/periodic         65.96675            1            4  #  O_2_M Zn6f3 O_3_M
    4  cosine/periodic         70.47472            1            4  #  N_2 Zn6f3 O_2_M
    5  cosine/periodic         23.92551            1            4  #  H_ Zn6f3 O_3_M
    6  cosine/periodic         25.39208            1            4  #  H_ Zn6f3 N_2
    7  cosine/periodic         69.42201            1            4  #  N_2 Zn6f3 O_3_M
    8  cosine/periodic         25.05849            1            1  #  O_3_M H_ Zn6f3
    9  cosine/periodic        179.74893           -1            3  #  C_R C_R N_2
    10 cosine/periodic        111.29751           -1            3  #  C_R C_R C_R
    11 cosine/periodic         57.28902           -1            3  #  C_R C_R H_
    12 cosine/periodic         48.24065           -1            3  #  H_ C_R S_3
    13 cosine/periodic        101.95051           -1            3  #  C_R C_R S_3
    14 cosine/periodic        102.18328           -1            3  #  C_R C_R C_R
    15 cosine/periodic        137.71425           -1            3  #  C_R C_R O_2_M
    16 cosine/periodic        206.77843           -1            3  #  O_2_M C_R O_2_M
    17 cosine/periodic        134.57449           -1            3  #  C_R C_R O_3_M
    18 cosine/periodic        201.38050           -1            3  #  O_2_M C_R O_3_M
    19 fourier                211.54307      0.25101      0.03669      0.25034  #  C_R S_3 C_R
    20 fourier                 48.02888      0.36401      0.41847      0.28800  #  C_R N_2 Zn6f3
    21 cosine/periodic         21.77718           -1            3  #  C_R O_2_M Zn6f3
    22 fourier                 22.33312      0.30023      0.26733      0.26675  #  H_ O_3_M Zn6f3
    23 fourier                 55.81766      0.30023      0.26733      0.26675  #  C_R O_3_M Zn6f3
    24 fourier                203.65891      0.30023      0.26733      0.26675  #  C_R O_3_M H_

Dihedral Coeffs

    1      27.96100           -1            2  #  X C_R N_2 X bond order=3.0
    2       6.73711           -1            2  #  X C_R C_R X bond order=1.5
    3       1.22984           -1            2  #  X C_R S_3 X bond order=1.0
    4       1.25000           -1            2  #  X C_R C_R X bond order=1.0
    5       6.73711           -1            2  #  X C_R O_2_M X bond order=1.5
    6       0.31957           -1            2  #  X C_R O_3_M X bond order=1.5

Improper Coeffs

    1       2.00000      1.00000     -1.00000      0.00000            1  #  C_R X X X O_2 present=False
    2      16.66667      1.00000     -1.00000      0.00000            1  #  C_R X X X O_2 present=True

Atoms # a, b, c, alpha, beta, gamma: 28.1189024052, 29.9881158364, 21.3622432009, 85.5635507060, 89.9478195766, 90.0530854838 $$$atoms$$$

    1 1     7      0.00000      0.52259     15.16596      6.57465   #   Zn1   0.01885442   0.48872221   0.30869492
    2 1     7      0.00000      3.45298     15.16913      6.57169   #   Zn2   0.12306893   0.48883578   0.30855574
    3 1     2      0.00000     10.67176     12.83688      8.68745   #    H1   0.37964127   0.40558904   0.40789569
    4 1     2      0.00000      9.05998      0.82941      5.97814   #    H2   0.32202028   0.01219114   0.28068743
    5 1     2      0.00000      1.20816     14.42952      5.63007   #    H3   0.04324425   0.46660827   0.26434435
    6 1     2      0.00000      3.37528     11.04850      8.23207   #    H4   0.12011160   0.34713113   0.38651412
    7 1     2      0.00000      3.38666      8.60769      8.22376   #    H5   0.12043625   0.26575996   0.38612395
    8 1     2      0.00000      0.60199      8.60539      4.92362   #    H6   0.02151971   0.27422151   0.23117526
    9 1     2      0.00000      0.60963     11.04579      4.91459   #    H7   0.02187210   0.35562365   0.23075111
   10 1     2      0.00000      2.04824      6.73442      4.41546   #    H8   0.07290944   0.21314572   0.20731563
   11 1     2      0.00000      2.03714      4.29402      4.41461   #    H9   0.07243401   0.13176906   0.20727583
   12 1     2      0.00000      1.95768      4.29379      8.73296   #   H10   0.06945702   0.12058871   0.41003236
   13 1     2      0.00000      1.94310      6.73460      8.73219   #   H11   0.06901901   0.20198322   0.40999632
   14 1     2      0.00000      0.27822     13.52786      2.56935   #   H12   0.01025017   0.44445985   0.12063679
   15 1     2      0.00000      0.27600     13.33906      0.13598   #   H13   0.01025016   0.44445987   0.00638478
   16 1     2      0.00000      3.71068      1.81269     10.57747   #   H14   0.13165310   0.03308035   0.49663605
   17 1     2      0.00000      3.70318      1.17519      2.36087   #   H15   0.13165308   0.03308033   0.11084823
   18 1     1      0.00000     11.51214     14.83736      6.87270   #    C1   0.40965743   0.47699341   0.32268879
   19 1     1      0.00000     10.18297     14.43191      7.24051   #    C2   0.36236157   0.46252137   0.33995829
   20 1     1      0.00000      9.92846     13.41940      8.15901   #    C3   0.35324473   0.42638131   0.38308411
   21 1     1      0.00000      7.86445     14.46518      7.21031   #    C4   0.27990935   0.46370911   0.33854056
   22 1     1      0.00000      9.03010     15.02137      6.70577   #    C5   0.32139987   0.48356143   0.31485107
   23 1     1      0.00000      6.52899     14.85627      6.85554   #    C6   0.23244151   0.47766834   0.32188309
   24 1     1      0.00000      1.99205     11.23962      6.57298   #    C7   0.07098376   0.35779675   0.30861628
   25 1     1      0.00000      2.76622     10.52669      7.50445   #    C8   0.09845964   0.33161306   0.35235077
   26 1     1      0.00000      2.76684      9.12893      7.50500   #    C9   0.09843585   0.28500121   0.35237671
   27 1     1      0.00000      1.99446      8.41328      6.57369   #   C10   0.07097653   0.26354627   0.30864963
   28 1     1      0.00000      1.22105      9.12770      5.64226   #   C11   0.04352749   0.28977960   0.26491689
   29 1     1      0.00000      1.21954     10.52552      5.64241   #   C12   0.04351999   0.33639143   0.26492414
   30 1     1      0.00000      1.99553      6.92776      6.57380   #   C13   0.07096539   0.21400901   0.30865478
   31 1     1      0.00000      2.01558      6.21265      5.36370   #   C14   0.07169732   0.19329310   0.25183794
   32 1     1      0.00000      2.01714      4.81483      5.36369   #   C15   0.07170671   0.14668092   0.25183741
   33 1     1      0.00000      1.99755      4.10142      6.57337   #   C16   0.07094415   0.11976146   0.30863466
   34 1     1      0.00000      1.97693      4.81505      7.78397   #   C17   0.07019203   0.14042636   0.36547500
   35 1     1      0.00000      1.97650      6.21281      7.78398   #   C18   0.07022279   0.18703678   0.36547563
   36 1     1      0.00000      1.98428     14.86371      2.65701   #   C19   0.07096396   0.48877910   0.12475286
   37 1     1      0.00000      1.02733     14.06798      2.00384   #   C20   0.03692865   0.46393434   0.09408464
   38 1     1      0.00000      1.02606     13.95984      0.61006   #   C21   0.03692862   0.46393437   0.02864357
   39 1     1      0.00000      1.99143     15.47139     10.48934   #   C22   0.07096392   0.48877912   0.49249807
   40 1     1      0.00000      2.95175      0.44622      0.49340   #   C23   0.10497114   0.01360329   0.02316603
   41 1     1      0.00000      2.95302      0.55436      1.88728   #   C24   0.10497113   0.01360328   0.08861218
   42 1     1      0.00000      1.99010     15.30324      9.00886   #   C25   0.07096315   0.48700217   0.42298624
   43 1     1      0.00000      1.98550     15.03187      4.13749   #   C26   0.07096133   0.49055639   0.19426448
   44 1     1      0.00000      1.99902      2.61238      6.52015   #   C27   0.07094918   0.07024455   0.30613604
   45 1     1      0.00000      1.99048     12.72866      6.62619   #   C28   0.07097527   0.40731347   0.31111471
   46 1     6      0.00000      8.25964     13.25593      8.30729   #    S1   0.29388548   0.42054675   0.39004617
   47 1     3      0.00000     12.58213     15.16379      6.57657   #    N1   0.44773099   0.48864504   0.30878486
   48 1     3      0.00000      5.45289     15.17140      6.56966   #    N2   0.19419235   0.48891660   0.30846066
   49 1     4      0.00000      3.09799     15.08945      4.63322   #    O1   0.11050932   0.49119401   0.21754040
   50 1     4      0.00000      3.10172     15.24805      8.51087   #    O2   0.11051157   0.48645040   0.39960450
   51 1     4      0.00000      3.11158      2.11386      6.50122   #    O3   0.11049975   0.05366968   0.30524714
   52 1     4      0.00000      3.10202     13.22960      6.64287   #    O4   0.11052110   0.42397474   0.31189771
   53 1     4      0.00000      0.88745      2.11144      6.50348   #    O5   0.03140221   0.05358325   0.30535295
   54 1     4      0.00000      0.87759     15.24565      8.51312   #    O6   0.03141403   0.48636451   0.39971028
   55 1     5      0.00000      0.87385     15.08705      4.63546   #    O7   0.03141177   0.49110811   0.21764542
   56 1     4      0.00000      0.87789     13.22719      6.64511   #    O8   0.03142356   0.42388883   0.31200278
   57 1     7      0.00000      0.53232     15.99219     17.22377   #   Zn1   0.01885442   0.48872221   0.80869492
   58 1     7      0.00000      3.46271     15.99536     17.22080   #   Zn2   0.12306893   0.48883578   0.80855574
   59 1     2      0.00000     10.68149     13.66311     19.33657   #    H1   0.37964127   0.40558904   0.90789569
   60 1     2      0.00000      9.06971      1.65564     16.62726   #    H2   0.32202028   0.01219114   0.78068743
   61 1     2      0.00000      1.21789     15.25574     16.27918   #    H3   0.04324425   0.46660827   0.76434435
   62 1     2      0.00000      3.38501     11.87473     18.88118   #    H4   0.12011160   0.34713113   0.88651412
   63 1     2      0.00000      3.39639      9.43392     18.87287   #    H5   0.12043625   0.26575996   0.88612395
   64 1     2      0.00000      0.61172      9.43162     15.57274   #    H6   0.02151971   0.27422151   0.73117526
   65 1     2      0.00000      0.61936     11.87201     15.56370   #    H7   0.02187210   0.35562365   0.73075111
   66 1     2      0.00000      2.05797      7.56065     15.06457   #    H8   0.07290944   0.21314572   0.70731563
   67 1     2      0.00000      2.04686      5.12025     15.06372   #    H9   0.07243401   0.13176906   0.70727583
   68 1     2      0.00000      1.96741      5.12002     19.38208   #   H10   0.06945702   0.12058871   0.91003236
   69 1     2      0.00000      1.95283      7.56083     19.38131   #   H11   0.06901901   0.20198322   0.90999632
   70 1     2      0.00000      0.28795     14.35408     13.21846   #   H12   0.01025017   0.44445985   0.62063679
   71 1     2      0.00000      0.28573     14.16529     10.78510   #   H13   0.01025016   0.44445987   0.50638478
   72 1     2      0.00000      3.72041      2.63892     21.22658   #   H14   0.13165310   0.03308035   0.99663605
   73 1     2      0.00000      3.71291      2.00142     13.00998   #   H15   0.13165308   0.03308033   0.61084823
   74 1     1      0.00000     11.52187     15.66359     17.52181   #    C1   0.40965743   0.47699341   0.82268879
   75 1     1      0.00000     10.19270     15.25813     17.88962   #    C2   0.36236157   0.46252137   0.83995829
   76 1     1      0.00000      9.93819     14.24563     18.80813   #    C3   0.35324473   0.42638131   0.88308411
   77 1     1      0.00000      7.87417     15.29141     17.85943   #    C4   0.27990935   0.46370911   0.83854056
   78 1     1      0.00000      9.03983     15.84760     17.35488   #    C5   0.32139987   0.48356143   0.81485107
   79 1     1      0.00000      6.53872     15.68250     17.50465   #    C6   0.23244151   0.47766834   0.82188309
   80 1     1      0.00000      2.00178     12.06585     17.22209   #    C7   0.07098376   0.35779675   0.80861628
   81 1     1      0.00000      2.77595     11.35292     18.15356   #    C8   0.09845964   0.33161306   0.85235077
   82 1     1      0.00000      2.77657      9.95516     18.15411   #    C9   0.09843585   0.28500121   0.85237671
   83 1     1      0.00000      2.00419      9.23951     17.22280   #   C10   0.07097653   0.26354627   0.80864963
   84 1     1      0.00000      1.23078      9.95393     16.29137   #   C11   0.04352749   0.28977960   0.76491689
   85 1     1      0.00000      1.22927     11.35175     16.29153   #   C12   0.04351999   0.33639143   0.76492414
   86 1     1      0.00000      2.00526      7.75399     17.22291   #   C13   0.07096539   0.21400901   0.80865478
   87 1     1      0.00000      2.02531      7.03887     16.01281   #   C14   0.07169732   0.19329310   0.75183794
   88 1     1      0.00000      2.02687      5.64106     16.01280   #   C15   0.07170671   0.14668092   0.75183741
   89 1     1      0.00000      2.00728      4.92765     17.22248   #   C16   0.07094415   0.11976146   0.80863466
   90 1     1      0.00000      1.98666      5.64128     18.43308   #   C17   0.07019203   0.14042636   0.86547500
   91 1     1      0.00000      1.98623      7.03904     18.43310   #   C18   0.07022279   0.18703678   0.86547563
   92 1     1      0.00000      1.99400     15.68994     13.30613   #   C19   0.07096396   0.48877910   0.62475286
   93 1     1      0.00000      1.03706     14.89421     12.65295   #   C20   0.03692865   0.46393434   0.59408464
   94 1     1      0.00000      1.03579     14.78607     11.25917   #   C21   0.03692862   0.46393437   0.52864357
   95 1     1      0.00000      2.00116     16.29762     21.13845   #   C22   0.07096392   0.48877912   0.99249807
   96 1     1      0.00000      2.96147      1.27245     11.14251   #   C23   0.10497114   0.01360329   0.52316603
   97 1     1      0.00000      2.96275      1.38059     12.53640   #   C24   0.10497113   0.01360328   0.58861218
   98 1     1      0.00000      1.99983     16.12947     19.65797   #   C25   0.07096315   0.48700217   0.92298624
   99 1     1      0.00000      1.99523     15.85810     14.78660   #   C26   0.07096133   0.49055639   0.69426448
  100 1     1      0.00000      2.00874      3.43861     17.16927   #   C27   0.07094918   0.07024455   0.80613604
  101 1     1      0.00000      2.00021     13.55489     17.27530   #   C28   0.07097527   0.40731347   0.81111471
  102 1     6      0.00000      8.26937     14.08216     18.95640   #    S1   0.29388548   0.42054675   0.89004617
  103 1     3      0.00000     12.59186     15.99002     17.22568   #    N1   0.44773099   0.48864504   0.80878486
  104 1     3      0.00000      5.46262     15.99763     17.21878   #    N2   0.19419235   0.48891660   0.80846066
  105 1     4      0.00000      3.10771     15.91568     15.28234   #    O1   0.11050932   0.49119401   0.71754040
  106 1     4      0.00000      3.11145     16.07428     19.15998   #    O2   0.11051157   0.48645040   0.89960450
  107 1     4      0.00000      3.12131      2.94009     17.15034   #    O3   0.11049975   0.05366968   0.80524714
  108 1     4      0.00000      3.11175     14.05583     17.29198   #    O4   0.11052110   0.42397474   0.81189771
  109 1     4      0.00000      0.89718      2.93767     17.15259   #    O5   0.03140221   0.05358325   0.80535295
  110 1     4      0.00000      0.88732     16.07188     19.16223   #    O6   0.03141403   0.48636451   0.89971028
  111 1     5      0.00000      0.88358     15.91328     15.28457   #    O7   0.03141177   0.49110811   0.71764542
  112 1     4      0.00000      0.88762     14.05342     17.29422   #    O8   0.03142356   0.42388883   0.81200278
  113 1     7      0.00000      0.50870     30.16001      6.57465   #   Zn1   0.01885442   0.98872221   0.30869492
  114 1     7      0.00000      3.43909     30.16318      6.57169   #   Zn2   0.12306893   0.98883578   0.30855574
  115 1     2      0.00000     10.65787     27.83093      8.68745   #    H1   0.37964127   0.90558904   0.40789569
  116 1     2      0.00000      9.04609     15.82346      5.97814   #    H2   0.32202028   0.51219114   0.28068743
  117 1     2      0.00000      1.19427     29.42357      5.63007   #    H3   0.04324425   0.96660827   0.26434435
  118 1     2      0.00000      3.36139     26.04255      8.23207   #    H4   0.12011160   0.84713113   0.38651412
  119 1     2      0.00000      3.37277     23.60174      8.22376   #    H5   0.12043625   0.76575996   0.38612395
  120 1     2      0.00000      0.58810     23.59944      4.92362   #    H6   0.02151971   0.77422151   0.23117526
  121 1     2      0.00000      0.59574     26.03984      4.91459   #    H7   0.02187210   0.85562365   0.23075111
  122 1     2      0.00000      2.03435     21.72847      4.41546   #    H8   0.07290944   0.71314572   0.20731563
  123 1     2      0.00000      2.02324     19.28807      4.41461   #    H9   0.07243401   0.63176906   0.20727583
  124 1     2      0.00000      1.94379     19.28784      8.73296   #   H10   0.06945702   0.62058871   0.41003236
  125 1     2      0.00000      1.92921     21.72865      8.73219   #   H11   0.06901901   0.70198322   0.40999632
  126 1     2      0.00000      0.26433     28.52191      2.56935   #   H12   0.01025017   0.94445985   0.12063679
  127 1     2      0.00000      0.26211     28.33311      0.13598   #   H13   0.01025016   0.94445987   0.00638478
  128 1     2      0.00000      3.69679     16.80674     10.57747   #   H14   0.13165310   0.53308035   0.49663605
  129 1     2      0.00000      3.68929     16.16924      2.36087   #   H15   0.13165308   0.53308033   0.11084823
  130 1     1      0.00000     11.49825     29.83141      6.87270   #    C1   0.40965743   0.97699341   0.32268879
  131 1     1      0.00000     10.16908     29.42596      7.24051   #    C2   0.36236157   0.96252137   0.33995829
  132 1     1      0.00000      9.91457     28.41345      8.15901   #    C3   0.35324473   0.92638131   0.38308411
  133 1     1      0.00000      7.85055     29.45923      7.21031   #    C4   0.27990935   0.96370911   0.33854056
  134 1     1      0.00000      9.01621     30.01542      6.70577   #    C5   0.32139987   0.98356143   0.31485107
  135 1     1      0.00000      6.51510     29.85032      6.85554   #    C6   0.23244151   0.97766834   0.32188309
  136 1     1      0.00000      1.97816     26.23367      6.57298   #    C7   0.07098376   0.85779675   0.30861628
  137 1     1      0.00000      2.75233     25.52074      7.50445   #    C8   0.09845964   0.83161306   0.35235077
  138 1     1      0.00000      2.75295     24.12299      7.50500   #    C9   0.09843585   0.78500121   0.35237671
  139 1     1      0.00000      1.98057     23.40734      6.57369   #   C10   0.07097653   0.76354627   0.30864963
  140 1     1      0.00000      1.20716     24.12176      5.64226   #   C11   0.04352749   0.78977960   0.26491689
  141 1     1      0.00000      1.20565     25.51957      5.64241   #   C12   0.04351999   0.83639143   0.26492414
  142 1     1      0.00000      1.98164     21.92182      6.57380   #   C13   0.07096539   0.71400901   0.30865478
  143 1     1      0.00000      2.00169     21.20670      5.36370   #   C14   0.07169732   0.69329310   0.25183794
  144 1     1      0.00000      2.00325     19.80888      5.36369   #   C15   0.07170671   0.64668092   0.25183741
  145 1     1      0.00000      1.98366     19.09548      6.57337   #   C16   0.07094415   0.61976146   0.30863466
  146 1     1      0.00000      1.96304     19.80910      7.78397   #   C17   0.07019203   0.64042636   0.36547500
  147 1     1      0.00000      1.96261     21.20686      7.78398   #   C18   0.07022279   0.68703678   0.36547563
  148 1     1      0.00000      1.97038     29.85776      2.65701   #   C19   0.07096396   0.98877910   0.12475286
  149 1     1      0.00000      1.01344     29.06203      2.00384   #   C20   0.03692865   0.96393434   0.09408464
  150 1     1      0.00000      1.01217     28.95390      0.61006   #   C21   0.03692862   0.96393437   0.02864357
  151 1     1      0.00000      1.97754     30.46544     10.48934   #   C22   0.07096392   0.98877912   0.49249807
  152 1     1      0.00000      2.93785     15.44027      0.49340   #   C23   0.10497114   0.51360329   0.02316603
  153 1     1      0.00000      2.93913     15.54842      1.88728   #   C24   0.10497113   0.51360328   0.08861218
  154 1     1      0.00000      1.97621     30.29729      9.00886   #   C25   0.07096315   0.98700217   0.42298624
  155 1     1      0.00000      1.97161     30.02592      4.13749   #   C26   0.07096133   0.99055639   0.19426448
  156 1     1      0.00000      1.98512     17.60643      6.52015   #   C27   0.07094918   0.57024455   0.30613604
  157 1     1      0.00000      1.97659     27.72271      6.62619   #   C28   0.07097527   0.90731347   0.31111471
  158 1     6      0.00000      8.24575     28.24999      8.30729   #    S1   0.29388548   0.92054675   0.39004617
  159 1     3      0.00000     12.56824     30.15784      6.57657   #    N1   0.44773099   0.98864504   0.30878486
  160 1     3      0.00000      5.43900     30.16545      6.56966   #    N2   0.19419235   0.98891660   0.30846066
  161 1     4      0.00000      3.08409     30.08350      4.63322   #    O1   0.11050932   0.99119401   0.21754040
  162 1     4      0.00000      3.08783     30.24211      8.51087   #    O2   0.11051157   0.98645040   0.39960450
  163 1     4      0.00000      3.09769     17.10791      6.50122   #    O3   0.11049975   0.55366968   0.30524714
  164 1     4      0.00000      3.08813     28.22365      6.64287   #    O4   0.11052110   0.92397474   0.31189771
  165 1     4      0.00000      0.87356     17.10549      6.50348   #    O5   0.03140221   0.55358325   0.30535295
  166 1     4      0.00000      0.86370     30.23971      8.51312   #    O6   0.03141403   0.98636451   0.39971028
  167 1     5      0.00000      0.85996     30.08110      4.63546   #    O7   0.03141177   0.99110811   0.21764542
  168 1     4      0.00000      0.86400     28.22125      6.64511   #    O8   0.03142356   0.92388883   0.31200278
  169 1     7      0.00000      0.51843     30.98624     17.22377   #   Zn1   0.01885442   0.98872221   0.80869492
  170 1     7      0.00000      3.44882     30.98941     17.22080   #   Zn2   0.12306893   0.98883578   0.80855574
  171 1     2      0.00000     10.66760     28.65716     19.33657   #    H1   0.37964127   0.90558904   0.90789569
  172 1     2      0.00000      9.05581     16.64969     16.62726   #    H2   0.32202028   0.51219114   0.78068743
  173 1     2      0.00000      1.20399     30.24980     16.27918   #    H3   0.04324425   0.96660827   0.76434435
  174 1     2      0.00000      3.37112     26.86878     18.88118   #    H4   0.12011160   0.84713113   0.88651412
  175 1     2      0.00000      3.38250     24.42797     18.87287   #    H5   0.12043625   0.76575996   0.88612395
  176 1     2      0.00000      0.59782     24.42567     15.57274   #    H6   0.02151971   0.77422151   0.73117526
  177 1     2      0.00000      0.60546     26.86607     15.56370   #    H7   0.02187210   0.85562365   0.73075111
  178 1     2      0.00000      2.04408     22.55470     15.06457   #    H8   0.07290944   0.71314572   0.70731563
  179 1     2      0.00000      2.03297     20.11430     15.06372   #    H9   0.07243401   0.63176906   0.70727583
  180 1     2      0.00000      1.95352     20.11407     19.38208   #   H10   0.06945702   0.62058871   0.91003236
  181 1     2      0.00000      1.93894     22.55488     19.38131   #   H11   0.06901901   0.70198322   0.90999632
  182 1     2      0.00000      0.27406     29.34814     13.21846   #   H12   0.01025017   0.94445985   0.62063679
  183 1     2      0.00000      0.27183     29.15934     10.78510   #   H13   0.01025016   0.94445987   0.50638478
  184 1     2      0.00000      3.70652     17.63297     21.22658   #   H14   0.13165310   0.53308035   0.99663605
  185 1     2      0.00000      3.69901     16.99547     13.00998   #   H15   0.13165308   0.53308033   0.61084823
  186 1     1      0.00000     11.50798     30.65764     17.52181   #    C1   0.40965743   0.97699341   0.82268879
  187 1     1      0.00000     10.17881     30.25219     17.88962   #    C2   0.36236157   0.96252137   0.83995829
  188 1     1      0.00000      9.92430     29.23968     18.80813   #    C3   0.35324473   0.92638131   0.88308411
  189 1     1      0.00000      7.86028     30.28546     17.85943   #    C4   0.27990935   0.96370911   0.83854056
  190 1     1      0.00000      9.02594     30.84165     17.35488   #    C5   0.32139987   0.98356143   0.81485107
  191 1     1      0.00000      6.52483     30.67655     17.50465   #    C6   0.23244151   0.97766834   0.82188309
  192 1     1      0.00000      1.98788     27.05990     17.22209   #    C7   0.07098376   0.85779675   0.80861628
  193 1     1      0.00000      2.76205     26.34697     18.15356   #    C8   0.09845964   0.83161306   0.85235077
  194 1     1      0.00000      2.76268     24.94921     18.15411   #    C9   0.09843585   0.78500121   0.85237671
  195 1     1      0.00000      1.99030     24.23356     17.22280   #   C10   0.07097653   0.76354627   0.80864963
  196 1     1      0.00000      1.21688     24.94799     16.29137   #   C11   0.04352749   0.78977960   0.76491689
  197 1     1      0.00000      1.21538     26.34580     16.29153   #   C12   0.04351999   0.83639143   0.76492414
  198 1     1      0.00000      1.99136     22.74804     17.22291   #   C13   0.07096539   0.71400901   0.80865478
  199 1     1      0.00000      2.01141     22.03293     16.01281   #   C14   0.07169732   0.69329310   0.75183794
  200 1     1      0.00000      2.01297     20.63511     16.01280   #   C15   0.07170671   0.64668092   0.75183741
  201 1     1      0.00000      1.99338     19.92171     17.22248   #   C16   0.07094415   0.61976146   0.80863466
  202 1     1      0.00000      1.97277     20.63533     18.43308   #   C17   0.07019203   0.64042636   0.86547500
  203 1     1      0.00000      1.97234     22.03309     18.43310   #   C18   0.07022279   0.68703678   0.86547563
  204 1     1      0.00000      1.98011     30.68399     13.30613   #   C19   0.07096396   0.98877910   0.62475286
  205 1     1      0.00000      1.02317     29.88826     12.65295   #   C20   0.03692865   0.96393434   0.59408464
  206 1     1      0.00000      1.02189     29.78012     11.25917   #   C21   0.03692862   0.96393437   0.52864357
  207 1     1      0.00000      1.98726     31.29167     21.13845   #   C22   0.07096392   0.98877912   0.99249807
  208 1     1      0.00000      2.94758     16.26650     11.14251   #   C23   0.10497114   0.51360329   0.52316603
  209 1     1      0.00000      2.94885     16.37465     12.53640   #   C24   0.10497113   0.51360328   0.58861218
  210 1     1      0.00000      1.98594     31.12352     19.65797   #   C25   0.07096315   0.98700217   0.92298624
  211 1     1      0.00000      1.98134     30.85215     14.78660   #   C26   0.07096133   0.99055639   0.69426448
  212 1     1      0.00000      1.99485     18.43266     17.16927   #   C27   0.07094918   0.57024455   0.80613604
  213 1     1      0.00000      1.98632     28.54894     17.27530   #   C28   0.07097527   0.90731347   0.81111471
  214 1     6      0.00000      8.25548     29.07622     18.95640   #    S1   0.29388548   0.92054675   0.89004617
  215 1     3      0.00000     12.57797     30.98407     17.22568   #    N1   0.44773099   0.98864504   0.80878486
  216 1     3      0.00000      5.44873     30.99168     17.21878   #    N2   0.19419235   0.98891660   0.80846066
  217 1     4      0.00000      3.09382     30.90973     15.28234   #    O1   0.11050932   0.99119401   0.71754040
  218 1     4      0.00000      3.09756     31.06834     19.15998   #    O2   0.11051157   0.98645040   0.89960450
  219 1     4      0.00000      3.10741     17.93414     17.15034   #    O3   0.11049975   0.55366968   0.80524714
  220 1     4      0.00000      3.09786     29.04988     17.29198   #    O4   0.11052110   0.92397474   0.81189771