Created by Ryther's code on 2025-08-05 18:36:57.280388, modified by xyan11@uic.edu. 

    528 atoms
    600 bonds
    1032 angles
    1216 dihedrals
    224 impropers

    9 atom types
    13 bond types
    24 angle types
    7 dihedral types
    2 improper types

0.00000000 33.55135108 xlo xhi
0.00000000 20.59814465 ylo yhi
0.00000000 20.53304768 zlo zhi
-0.31397178 -0.14011241 1.59925899 xy xz yz 

Masses 

    1    12.0107  #   C
    2    12.0107  #   C
    3    1.00794  #   H
    4    14.0067  #   N
    5    14.0067  #   N
    6    15.9994  #   O
    7    15.9994  #   O
    8     32.065  #   S
    9      65.38  #  Zn

Pair Coeffs

    1       0.10500      3.43085  #  C_3 C_3
    2       0.10500      3.43085  #  C_R C_R
    3       0.04400      2.57113  #  H_ H_
    4       0.06900      3.26069  #  N_2 N_2
    5       0.06900      3.26069  #  N_3 N_3
    6       0.06000      3.11815  #  O_1 O_1
    7       0.06000      3.11815  #  O_2_M O_2_M
    8       0.27400      3.59478  #  S_3 S_3
    9       0.06000      2.58361  #  Zn6f3 Zn6f3

Bond Coeffs

    1      55.07699      2.48452  #  N_2 Zn6f3 bond order=0.5
    2      54.94924      2.40433  #  O_2_M Zn6f3 bond order=0.5
    3     357.44038      1.08142  #  C_R H_ bond order=1.0
    4     527.90376      1.04442  #  H_ N_3 bond order=1.0
    5     331.06939      1.10940  #  C_3 H_ bond order=1.0
    6     462.65505      1.37926  #  C_R C_R bond order=1.5
    7     931.53598      1.20133  #  C_R N_2 bond order=3.0
    8     301.29678      1.78592  #  C_R S_3 bond order=1.0
    9     391.66951      1.45800  #  C_R C_R bond order=1.0
    10    560.26893      1.42319  #  C_R N_3 bond order=1.0
    11    706.67500      1.27367  #  C_R O_1 bond order=1.5
    12    369.94394      1.48600  #  C_3 C_R bond order=1.0
    13    714.55744      1.26901  #  C_R O_2_M bond order=1.5

Angle Coeffs

    1  cosine/periodic         70.47472            1            4  #  N_2 Zn6f3 O_2_M
    2  cosine/periodic         67.02484            1            4  #  O_2_M Zn6f3 O_2_M
    3  cosine/periodic        179.74893           -1            3  #  C_R C_R N_2
    4  cosine/periodic        101.95051           -1            3  #  C_R C_R S_3
    5  cosine/periodic        111.29751           -1            3  #  C_R C_R C_R
    6  cosine/periodic         57.28902           -1            3  #  C_R C_R H_
    7  cosine/periodic        102.18328           -1            3  #  C_R C_R C_R
    8  cosine/periodic         95.48191           -1            3  #  C_R C_R S_3
    9  cosine/periodic        141.17366           -1            3  #  C_R C_R N_3
    10 cosine/periodic        132.67762           -1            3  #  C_3 C_R O_1
    11 cosine/periodic        189.84281           -1            3  #  N_3 C_R O_1
    12 cosine/periodic        126.16097           -1            3  #  C_3 C_R N_3
    13 fourier                121.77380      0.34375      0.37500      0.28125  #  C_R C_3 H_
    14 fourier                 75.49653      0.34375      0.37500      0.28125  #  H_ C_3 H_
    15 cosine/periodic        137.04263           -1            3  #  C_R C_R O_1
    16 cosine/periodic        129.92907           -1            3  #  C_R C_R N_3
    17 cosine/periodic        137.71425           -1            3  #  C_R C_R O_2_M
    18 cosine/periodic        206.77843           -1            3  #  O_2_M C_R O_2_M
    19 fourier                211.54307      0.25101      0.03669      0.25034  #  C_R S_3 C_R
    20 fourier                 48.02888      0.36401      0.41847      0.28800  #  C_R N_2 Zn6f3
    21 fourier                150.57460      0.31751      0.31322      0.27250  #  C_R N_3 H_
    22 fourier                276.50199      0.31751      0.31322      0.27250  #  C_R N_3 C_R
    23 fourier                 97.01717      0.31751      0.31322      0.27250  #  H_ N_3 H_
    24 cosine/periodic         21.77718           -1            3  #  C_R O_2_M Zn6f3

Dihedral Coeffs

    1       6.73711           -1            2  #  X C_R C_R X bond order=1.5
    2      27.96100           -1            2  #  X C_R N_2 X bond order=3.0
    3       1.22984           -1            2  #  X C_R S_3 X bond order=1.0
    4       1.25000           -1            2  #  X C_R C_R X bond order=1.0
    5       0.25000           -1            6  #  X C_R N_3 X bond order=1.0
    6       0.16667           -1            6  #  X C_3 C_R X bond order=1.0
    7       6.73711           -1            2  #  X C_R O_2_M X bond order=1.5

Improper Coeffs

    1       2.00000      1.00000     -1.00000      0.00000            1  #  C_R X X X O_2 present=False
    2      16.66667      1.00000     -1.00000      0.00000            1  #  C_R X X X O_2 present=True

Atoms # a, b, c, alpha, beta, gamma: 33.5513510799, 20.6005374064, 20.5957109056, 85.5410536102, 90.3897855956, 90.8732759795 $$$atoms$$$

    1 1     9      0.00000     14.48063      5.02439      5.90727   #   Zn1   0.43487101   0.22158738   0.28769588
    2 1     9      0.00000      0.63494      5.07011      5.92406   #   Zn2   0.02222313   0.22374352   0.28851327
    3 1     3      0.00000     11.31762      7.55348      8.29935   #    H1   0.34214830   0.33532473   0.40419470
    4 1     3      0.00000      8.98051      8.41956      8.90764   #    H2   0.27298615   0.37507124   0.43381965
    5 1     3      0.00000      6.04875      5.58072      6.40191   #    H3   0.18389422   0.24672601   0.31178584
    6 1     3      0.00000      2.83038      8.04692      7.82188   #    H4   0.08932959   0.36108573   0.38094112
    7 1     3      0.00000      4.45684      9.57997      8.86813   #    H5   0.13867848   0.43155608   0.43189530
    8 1     3      0.00000      6.86168      9.15728      8.69482   #    H6   0.21013362   0.41169081   0.42345488
    9 1     3      0.00000     16.27593      2.04801      3.98854   #    H7   0.48670559   0.08434539   0.19424977
   10 1     3      0.00000     16.21774      8.05914      3.98570   #    H8   0.48770165   0.37618455   0.19411146
   11 1     3      0.00000     15.57725     10.19244      7.66968   #    H9   0.47019974   0.46582215   0.37352857
   12 1     3      0.00000     16.10371      9.35177      1.87655   #   H10   0.48453582   0.44691443   0.09139179
   13 1     3      0.00000     16.30892      1.42937     10.09117   #   H11   0.48843310   0.03123597   0.49145972
   14 1     3      0.00000      0.86996      2.64125     10.08818   #   H12   0.02882397   0.09008147   0.49131408
   15 1     3      0.00000      1.25551      0.87313     10.11199   #   H13   0.03951610   0.00415253   0.49247388
   16 1     3      0.00000     14.06362      5.22771      2.87950   #   H15   0.42202579   0.24290717   0.14023758
   17 1     3      0.00000     14.03580      5.72275      8.85694   #   H16   0.42242572   0.24433821   0.43135041
   18 1     3      0.00000      0.93961      4.26634      0.82388   #   H17   0.03008176   0.20400705   0.04012440
   19 1     3      0.00000     10.54508      6.08478      9.88612   #   H19   0.31872183   0.25802219   0.48147381
   20 1     3      0.00000     11.88039      5.13237      9.16886   #   H20   0.35796776   0.21449663   0.44654165
   21 1     2      0.00000     11.55168      5.53435      6.32295   #    C1   0.34787511   0.24477343   0.30794022
   22 1     2      0.00000     10.39839      6.20591      6.85312   #    C2   0.31389544   0.27537122   0.33376065
   23 1     2      0.00000     10.41333      7.18887      7.82932   #    C3   0.31495133   0.31940104   0.38130349
   24 1     2      0.00000      9.13526      7.66170      8.15297   #    C4   0.27712754   0.34113234   0.39706555
   25 1     2      0.00000      8.10879      7.04882      7.42778   #    C5   0.24613317   0.31412025   0.36174741
   26 1     2      0.00000      6.65290      7.32590      7.53924   #    C6   0.20288498   0.32715053   0.36717582
   27 1     2      0.00000      5.71666      6.45979      6.94060   #    C7   0.17448612   0.28736622   0.33802108
   28 1     2      0.00000      4.34253      6.71533      7.04121   #    C8   0.13366300   0.29939146   0.34292094
   29 1     2      0.00000      3.39561      5.82062      6.42824   #    C9   0.10493071   0.25827310   0.31306821
   30 1     2      0.00000      3.89068      7.84007      7.73880   #   C10   0.12082380   0.35135781   0.37689497
   31 1     2      0.00000      4.80862      8.70745      8.33270   #   C11   0.14867683   0.39122159   0.40581887
   32 1     2      0.00000      6.18002      8.45589      8.23511   #   C12   0.18942108   0.37937792   0.40106637
   33 1     2      0.00000     16.00691      1.11980      5.91570   #   C13   0.47858947   0.03199533   0.28810615
   34 1     2      0.00000     16.24048      1.11250      4.53078   #   C14   0.48531519   0.03687745   0.22065776
   35 1     2      0.00000     16.23783     10.20031      3.83587   #   C15   0.48924803   0.48070075   0.18681431
   36 1     2      0.00000     16.11739      8.98962      4.53109   #   C16   0.48522501   0.41929546   0.22067312
   37 1     2      0.00000     15.88446      8.97471      5.91564   #   C17   0.47850847   0.41333599   0.28810332
   38 1     2      0.00000     15.75690     10.19513      6.60147   #   C18   0.47537622   0.46999198   0.32150472
   39 1     2      0.00000      0.61209      0.85421      1.70244   #   C19   0.01891746   0.03503264   0.08291227
   40 1     1      0.00000      0.62132      0.85049      0.20859   #   C20   0.01893991   0.04050089   0.01015889
   41 1     2      0.00000     15.97291      4.74358      1.99959   #   C21   0.47856460   0.22273058   0.09738388
   42 1     2      0.00000     14.60049      5.04194      1.95694   #   C22   0.43778775   0.23737673   0.09530665
   43 1     2      0.00000     13.90982      5.08815      0.73413   #   C23   0.41701795   0.24424390   0.03575336
   44 1     2      0.00000     14.54533      5.65044      9.80843   #   C24   0.43773931   0.23722947   0.47768974
   45 1     2      0.00000     15.91846      5.35093      9.83175   #   C25   0.47853335   0.22260070   0.47882559
   46 1     2      0.00000     16.65750      4.49692      0.79874   #   C26   0.49865489   0.21529662   0.03890015
   47 1     2      0.00000     12.46104      5.40853      0.71552   #   C27   0.37397936   0.25986809   0.03484748
   48 1     2      0.00000     15.92955      5.18284      8.35130   #   C28   0.47853892   0.22003856   0.40672496
   49 1     2      0.00000     15.96172      4.91167      3.48003   #   C29   0.47855617   0.22529317   0.16948426
   50 1     2      0.00000     15.90791      7.48584      5.86251   #   C30   0.47852195   0.34125531   0.28551577
   51 1     2      0.00000     15.98337      2.60866      5.96882   #   C31   0.47857311   0.10407565   0.29069349
   52 1     8      0.00000      8.81317      5.91686      6.38937   #    S1   0.26643858   0.26309240   0.31117495
   53 1     4      0.00000     12.48099      4.99319      5.89571   #    N1   0.37525567   0.22011636   0.28713279
   54 1     4      0.00000      2.63458      5.10141      5.93551   #    N2   0.08183846   0.22521983   0.28907103
   55 1     5      0.00000     16.45643     10.17587      2.41448   #    N3   0.49551335   0.48488878   0.11759001
   56 1     5      0.00000     11.54808      5.79489      9.90301   #    N4   0.34848751   0.24388456   0.48229637
   57 1     6      0.00000      1.35131      1.66553      2.32258   #    O1   0.04142277   0.07207615   0.11311421
   58 1     6      0.00000     11.95080      6.04650      1.67578   #    O2   0.35922286   0.28720949   0.08161364
   59 1     7      0.00000      0.29421      4.98538      3.98325   #    O3   0.01170302   0.22696861   0.19399201
   60 1     7      0.00000      0.26951      5.14383      7.86082   #    O4   0.01169031   0.21999909   0.38283741
   61 1     7      0.00000      0.25202      7.00353      5.85110   #    O5   0.01167616   0.31788313   0.28496013
   62 1     7      0.00000      0.31170      3.12568      5.99297   #    O6   0.01171714   0.12908458   0.29186924
   63 1     7      0.00000     14.80387      6.96882      5.83836   #    O7   0.44537697   0.31624632   0.28433991
   64 1     7      0.00000     14.82136      5.10914      7.84808   #    O8   0.44539112   0.21836305   0.38221716
   65 1     7      0.00000     14.84606      4.95068      3.97050   #    O9   0.44540382   0.22533256   0.19337097
   66 1     7      0.00000     14.86355      3.09098      5.98021   #   O10   0.44541794   0.12744851   0.29124825
   67 1     9      0.00000     14.41057      5.82402     16.17380   #   Zn1   0.43487101   0.22158738   0.78769588
   68 1     9      0.00000      0.56489      5.86974     16.19058   #   Zn2   0.02222313   0.22374352   0.78851327
   69 1     3      0.00000     11.24757      8.35311     18.56587   #    H1   0.34214830   0.33532473   0.90419470
   70 1     3      0.00000      8.91045      9.21919     19.17416   #    H2   0.27298615   0.37507124   0.93381965
   71 1     3      0.00000      5.97869      6.38035     16.66844   #    H3   0.18389422   0.24672601   0.81178584
   72 1     3      0.00000      2.76033      8.84655     18.08841   #    H4   0.08932959   0.36108573   0.88094112
   73 1     3      0.00000      4.38678     10.37960     19.13465   #    H5   0.13867848   0.43155608   0.93189530
   74 1     3      0.00000      6.79162      9.95691     18.96134   #    H6   0.21013362   0.41169081   0.92345488
   75 1     3      0.00000     16.20587      2.84764     14.25506   #    H7   0.48670559   0.08434539   0.69424977
   76 1     3      0.00000     16.14768      8.85877     14.25222   #    H8   0.48770165   0.37618455   0.69411146
   77 1     3      0.00000     15.50719     10.99207     17.93620   #    H9   0.47019974   0.46582215   0.87352857
   78 1     3      0.00000     16.03365     10.15140     12.14308   #   H10   0.48453582   0.44691443   0.59139179
   79 1     3      0.00000     16.23887      2.22900     20.35769   #   H11   0.48843310   0.03123597   0.99145972
   80 1     3      0.00000      0.79990      3.44088     20.35470   #   H12   0.02882397   0.09008147   0.99131408
   81 1     3      0.00000      1.18546      1.67276     20.37851   #   H13   0.03951610   0.00415253   0.99247388
   82 1     3      0.00000     13.99356      6.02734     13.14603   #   H15   0.42202579   0.24290717   0.64023758
   83 1     3      0.00000     13.96574      6.52238     19.12346   #   H16   0.42242572   0.24433821   0.93135041
   84 1     3      0.00000      0.86955      5.06597     11.09040   #   H17   0.03008176   0.20400705   0.54012440
   85 1     3      0.00000     10.47502      6.88441     20.15265   #   H19   0.31872183   0.25802219   0.98147381
   86 1     3      0.00000     11.81033      5.93200     19.43538   #   H20   0.35796776   0.21449663   0.94654165
   87 1     2      0.00000     11.48163      6.33398     16.58948   #    C1   0.34787511   0.24477343   0.80794022
   88 1     2      0.00000     10.32834      7.00554     17.11965   #    C2   0.31389544   0.27537122   0.83376065
   89 1     2      0.00000     10.34328      7.98850     18.09585   #    C3   0.31495133   0.31940104   0.88130349
   90 1     2      0.00000      9.06521      8.46133     18.41949   #    C4   0.27712754   0.34113234   0.89706555
   91 1     2      0.00000      8.03873      7.84845     17.69430   #    C5   0.24613317   0.31412025   0.86174741
   92 1     2      0.00000      6.58285      8.12553     17.80576   #    C6   0.20288498   0.32715053   0.86717582
   93 1     2      0.00000      5.64660      7.25942     17.20713   #    C7   0.17448612   0.28736622   0.83802108
   94 1     2      0.00000      4.27247      7.51496     17.30774   #    C8   0.13366300   0.29939146   0.84292094
   95 1     2      0.00000      3.32556      6.62025     16.69477   #    C9   0.10493071   0.25827310   0.81306821
   96 1     2      0.00000      3.82062      8.63970     18.00533   #   C10   0.12082380   0.35135781   0.87689497
   97 1     2      0.00000      4.73856      9.50708     18.59922   #   C11   0.14867683   0.39122159   0.90581887
   98 1     2      0.00000      6.10997      9.25552     18.50164   #   C12   0.18942108   0.37937792   0.90106637
   99 1     2      0.00000     15.93685      1.91943     16.18222   #   C13   0.47858947   0.03199533   0.78810615
  100 1     2      0.00000     16.17043      1.91213     14.79730   #   C14   0.48531519   0.03687745   0.72065776
  101 1     2      0.00000     16.16777     10.99994     14.10239   #   C15   0.48924803   0.48070075   0.68681431
  102 1     2      0.00000     16.04733      9.78925     14.79762   #   C16   0.48522501   0.41929546   0.72067312
  103 1     2      0.00000     15.81441      9.77434     16.18216   #   C17   0.47850847   0.41333599   0.78810332
  104 1     2      0.00000     15.68685     10.99476     16.86800   #   C18   0.47537622   0.46999198   0.82150472
  105 1     2      0.00000      0.54203      1.65384     11.96897   #   C19   0.01891746   0.03503264   0.58291227
  106 1     1      0.00000      0.55126      1.65012     10.47512   #   C20   0.01893991   0.04050089   0.51015889
  107 1     2      0.00000     15.90286      5.54321     12.26611   #   C21   0.47856460   0.22273058   0.59738388
  108 1     2      0.00000     14.53043      5.84157     12.22346   #   C22   0.43778775   0.23737673   0.59530665
  109 1     2      0.00000     13.83976      5.88778     11.00065   #   C23   0.41701795   0.24424390   0.53575336
  110 1     2      0.00000     14.47528      6.45007     20.07495   #   C24   0.43773931   0.23722947   0.97768974
  111 1     2      0.00000     15.84840      6.15056     20.09827   #   C25   0.47853335   0.22260070   0.97882559
  112 1     2      0.00000     16.58744      5.29655     11.06526   #   C26   0.49865489   0.21529662   0.53890015
  113 1     2      0.00000     12.39098      6.20816     10.98205   #   C27   0.37397936   0.25986809   0.53484748
  114 1     2      0.00000     15.85950      5.98247     18.61783   #   C28   0.47853892   0.22003856   0.90672496
  115 1     2      0.00000     15.89167      5.71130     13.74655   #   C29   0.47855617   0.22529317   0.66948426
  116 1     2      0.00000     15.83785      8.28547     16.12903   #   C30   0.47852195   0.34125531   0.78551577
  117 1     2      0.00000     15.91331      3.40829     16.23535   #   C31   0.47857311   0.10407565   0.79069349
  118 1     8      0.00000      8.74312      6.71649     16.65589   #    S1   0.26643858   0.26309240   0.81117495
  119 1     4      0.00000     12.41094      5.79282     16.16224   #    N1   0.37525567   0.22011636   0.78713279
  120 1     4      0.00000      2.56452      5.90104     16.20203   #    N2   0.08183846   0.22521983   0.78907103
  121 1     5      0.00000     16.38637     10.97550     12.68101   #    N3   0.49551335   0.48488878   0.61759001
  122 1     5      0.00000     11.47802      6.59452     20.16954   #    N4   0.34848751   0.24388456   0.98229637
  123 1     6      0.00000      1.28126      2.46516     12.58910   #    O1   0.04142277   0.07207615   0.61311421
  124 1     6      0.00000     11.88075      6.84613     11.94230   #    O2   0.35922286   0.28720949   0.58161364
  125 1     7      0.00000      0.22415      5.78501     14.24977   #    O3   0.01170302   0.22696861   0.69399201
  126 1     7      0.00000      0.19946      5.94346     18.12734   #    O4   0.01169031   0.21999909   0.88283741
  127 1     7      0.00000      0.18196      7.80316     16.11762   #    O5   0.01167616   0.31788313   0.78496013
  128 1     7      0.00000      0.24165      3.92531     16.25949   #    O6   0.01171714   0.12908458   0.79186924
  129 1     7      0.00000     14.73381      7.76845     16.10489   #    O7   0.44537697   0.31624632   0.78433991
  130 1     7      0.00000     14.75130      5.90877     18.11461   #    O8   0.44539112   0.21836305   0.88221716
  131 1     7      0.00000     14.77600      5.75031     14.23702   #    O9   0.44540382   0.22533256   0.69337097
  132 1     7      0.00000     14.79349      3.89061     16.24674   #   O10   0.44541794   0.12744851   0.79124825
  133 1     9      0.00000     14.32364     15.32346      5.90727   #   Zn1   0.43487101   0.72158738   0.28769588
  134 1     9      0.00000      0.47796     15.36918      5.92406   #   Zn2   0.02222313   0.72374352   0.28851327
  135 1     3      0.00000     11.16064     17.85255      8.29935   #    H1   0.34214830   0.83532473   0.40419470
  136 1     3      0.00000      8.82352     18.71863      8.90764   #    H2   0.27298615   0.87507124   0.43381965
  137 1     3      0.00000      5.89176     15.87980      6.40191   #    H3   0.18389422   0.74672601   0.31178584
  138 1     3      0.00000      2.67340     18.34599      7.82188   #    H4   0.08932959   0.86108573   0.38094112
  139 1     3      0.00000      4.29985     19.87904      8.86813   #    H5   0.13867848   0.93155608   0.43189530
  140 1     3      0.00000      6.70469     19.45635      8.69482   #    H6   0.21013362   0.91169081   0.42345488
  141 1     3      0.00000     16.11895     12.34709      3.98854   #    H7   0.48670559   0.58434539   0.19424977
  142 1     3      0.00000     16.06075     18.35821      3.98570   #    H8   0.48770165   0.87618455   0.19411146
  143 1     3      0.00000     15.42026     20.49151      7.66968   #    H9   0.47019974   0.96582215   0.37352857
  144 1     3      0.00000     15.94672     19.65084      1.87655   #   H10   0.48453582   0.94691443   0.09139179
  145 1     3      0.00000     16.15194     11.72845     10.09117   #   H11   0.48843310   0.53123597   0.49145972
  146 1     3      0.00000      0.71297     12.94032     10.08818   #   H12   0.02882397   0.59008147   0.49131408
  147 1     3      0.00000      1.09853     11.17220     10.11199   #   H13   0.03951610   0.50415253   0.49247388
  148 1     3      0.00000     13.90663     15.52679      2.87950   #   H15   0.42202579   0.74290717   0.14023758
  149 1     3      0.00000     13.87881     16.02183      8.85694   #   H16   0.42242572   0.74433821   0.43135041
  150 1     3      0.00000      0.78262     14.56541      0.82388   #   H17   0.03008176   0.70400705   0.04012440
  151 1     3      0.00000     10.38809     16.38385      9.88612   #   H19   0.31872183   0.75802219   0.48147381
  152 1     3      0.00000     11.72340     15.43144      9.16886   #   H20   0.35796776   0.71449663   0.44654165
  153 1     2      0.00000     11.39470     15.83343      6.32295   #    C1   0.34787511   0.74477343   0.30794022
  154 1     2      0.00000     10.24141     16.50498      6.85312   #    C2   0.31389544   0.77537122   0.33376065
  155 1     2      0.00000     10.25635     17.48794      7.82932   #    C3   0.31495133   0.81940104   0.38130349
  156 1     2      0.00000      8.97828     17.96078      8.15297   #    C4   0.27712754   0.84113234   0.39706555
  157 1     2      0.00000      7.95180     17.34789      7.42778   #    C5   0.24613317   0.81412025   0.36174741
  158 1     2      0.00000      6.49592     17.62498      7.53924   #    C6   0.20288498   0.82715053   0.36717582
  159 1     2      0.00000      5.55967     16.75887      6.94060   #    C7   0.17448612   0.78736622   0.33802108
  160 1     2      0.00000      4.18554     17.01440      7.04121   #    C8   0.13366300   0.79939146   0.34292094
  161 1     2      0.00000      3.23863     16.11970      6.42824   #    C9   0.10493071   0.75827310   0.31306821
  162 1     2      0.00000      3.73369     18.13914      7.73880   #   C10   0.12082380   0.85135781   0.37689497
  163 1     2      0.00000      4.65163     19.00652      8.33270   #   C11   0.14867683   0.89122159   0.40581887
  164 1     2      0.00000      6.02304     18.75496      8.23511   #   C12   0.18942108   0.87937792   0.40106637
  165 1     2      0.00000     15.84992     11.41887      5.91570   #   C13   0.47858947   0.53199533   0.28810615
  166 1     2      0.00000     16.08350     11.41157      4.53078   #   C14   0.48531519   0.53687745   0.22065776
  167 1     2      0.00000     16.08085     20.49938      3.83587   #   C15   0.48924803   0.98070075   0.18681431
  168 1     2      0.00000     15.96040     19.28869      4.53109   #   C16   0.48522501   0.91929546   0.22067312
  169 1     2      0.00000     15.72748     19.27378      5.91564   #   C17   0.47850847   0.91333599   0.28810332
  170 1     2      0.00000     15.59992     20.49420      6.60147   #   C18   0.47537622   0.96999198   0.32150472
  171 1     2      0.00000      0.45510     11.15328      1.70244   #   C19   0.01891746   0.53503264   0.08291227
  172 1     1      0.00000      0.46433     11.14956      0.20859   #   C20   0.01893991   0.54050089   0.01015889
  173 1     2      0.00000     15.81593     15.04265      1.99959   #   C21   0.47856460   0.72273058   0.09738388
  174 1     2      0.00000     14.44350     15.34101      1.95694   #   C22   0.43778775   0.73737673   0.09530665
  175 1     2      0.00000     13.75283     15.38722      0.73413   #   C23   0.41701795   0.74424390   0.03575336
  176 1     2      0.00000     14.38835     15.94951      9.80843   #   C24   0.43773931   0.73722947   0.47768974
  177 1     2      0.00000     15.76147     15.65000      9.83175   #   C25   0.47853335   0.72260070   0.47882559
  178 1     2      0.00000     16.50051     14.79599      0.79874   #   C26   0.49865489   0.71529662   0.03890015
  179 1     2      0.00000     12.30405     15.70760      0.71552   #   C27   0.37397936   0.75986809   0.03484748
  180 1     2      0.00000     15.77257     15.48192      8.35130   #   C28   0.47853892   0.72003856   0.40672496
  181 1     2      0.00000     15.80474     15.21074      3.48003   #   C29   0.47855617   0.72529317   0.16948426
  182 1     2      0.00000     15.75092     17.78491      5.86251   #   C30   0.47852195   0.84125531   0.28551577
  183 1     2      0.00000     15.82638     12.90773      5.96882   #   C31   0.47857311   0.60407565   0.29069349
  184 1     8      0.00000      8.65619     16.21594      6.38937   #    S1   0.26643858   0.76309240   0.31117495
  185 1     4      0.00000     12.32401     15.29226      5.89571   #    N1   0.37525567   0.72011636   0.28713279
  186 1     4      0.00000      2.47759     15.40048      5.93551   #    N2   0.08183846   0.72521983   0.28907103
  187 1     5      0.00000     16.29944     20.47494      2.41448   #    N3   0.49551335   0.98488878   0.11759001
  188 1     5      0.00000     11.39109     16.09396      9.90301   #    N4   0.34848751   0.74388456   0.48229637
  189 1     6      0.00000      1.19433     11.96461      2.32258   #    O1   0.04142277   0.57207615   0.11311421
  190 1     6      0.00000     11.79382     16.34558      1.67578   #    O2   0.35922286   0.78720949   0.08161364
  191 1     7      0.00000      0.13722     15.28445      3.98325   #    O3   0.01170302   0.72696861   0.19399201
  192 1     7      0.00000      0.11253     15.44290      7.86082   #    O4   0.01169031   0.71999909   0.38283741
  193 1     7      0.00000      0.09503     17.30260      5.85110   #    O5   0.01167616   0.81788313   0.28496013
  194 1     7      0.00000      0.15472     13.42475      5.99297   #    O6   0.01171714   0.62908458   0.29186924
  195 1     7      0.00000     14.64688     17.26789      5.83836   #    O7   0.44537697   0.81624632   0.28433991
  196 1     7      0.00000     14.66437     15.40821      7.84808   #    O8   0.44539112   0.71836305   0.38221716
  197 1     7      0.00000     14.68907     15.24976      3.97050   #    O9   0.44540382   0.72533256   0.19337097
  198 1     7      0.00000     14.70657     13.39006      5.98021   #   O10   0.44541794   0.62744851   0.29124825
  199 1     9      0.00000     14.25359     16.12309     16.17380   #   Zn1   0.43487101   0.72158738   0.78769588
  200 1     9      0.00000      0.40790     16.16881     16.19058   #   Zn2   0.02222313   0.72374352   0.78851327
  201 1     3      0.00000     11.09058     18.65218     18.56587   #    H1   0.34214830   0.83532473   0.90419470
  202 1     3      0.00000      8.75347     19.51826     19.17416   #    H2   0.27298615   0.87507124   0.93381965
  203 1     3      0.00000      5.82171     16.67943     16.66844   #    H3   0.18389422   0.74672601   0.81178584
  204 1     3      0.00000      2.60334     19.14562     18.08841   #    H4   0.08932959   0.86108573   0.88094112
  205 1     3      0.00000      4.22980     20.67867     19.13465   #    H5   0.13867848   0.93155608   0.93189530
  206 1     3      0.00000      6.63463     20.25598     18.96134   #    H6   0.21013362   0.91169081   0.92345488
  207 1     3      0.00000     16.04889     13.14672     14.25506   #    H7   0.48670559   0.58434539   0.69424977
  208 1     3      0.00000     15.99070     19.15784     14.25222   #    H8   0.48770165   0.87618455   0.69411146
  209 1     3      0.00000     15.35020     21.29114     17.93620   #    H9   0.47019974   0.96582215   0.87352857
  210 1     3      0.00000     15.87667     20.45047     12.14308   #   H10   0.48453582   0.94691443   0.59139179
  211 1     3      0.00000     16.08188     12.52808     20.35769   #   H11   0.48843310   0.53123597   0.99145972
  212 1     3      0.00000      0.64292     13.73995     20.35470   #   H12   0.02882397   0.59008147   0.99131408
  213 1     3      0.00000      1.02847     11.97183     20.37851   #   H13   0.03951610   0.50415253   0.99247388
  214 1     3      0.00000     13.83658     16.32642     13.14603   #   H15   0.42202579   0.74290717   0.64023758
  215 1     3      0.00000     13.80876     16.82146     19.12346   #   H16   0.42242572   0.74433821   0.93135041
  216 1     3      0.00000      0.71257     15.36504     11.09040   #   H17   0.03008176   0.70400705   0.54012440
  217 1     3      0.00000     10.31803     17.18348     20.15265   #   H19   0.31872183   0.75802219   0.98147381
  218 1     3      0.00000     11.65335     16.23107     19.43538   #   H20   0.35796776   0.71449663   0.94654165