Created by Ryther's code on 2025-07-29 22:46:58.177327, modified by xyan11@uic.edu. 

    520 atoms
    632 bonds
    1448 angles
    1072 dihedrals
    224 impropers

    6 atom types
    10 bond types
    19 angle types
    5 dihedral types
    2 improper types

0.00000000 22.84337115 xlo xhi
0.00000000 30.98067758 ylo yhi
0.00000000 30.8894186 zlo zhi
0.3158177 0.24029454 2.38508258 xy xz yz 

Masses 

    1    12.0107  #   C
    2    1.00794  #   H
    3    14.0067  #   N
    4    15.9994  #   O
    5    15.9994  #   O
    6      65.38  #  Zn

Pair Coeffs

    1       0.10500      3.43085  #  C_R C_R
    2       0.04400      2.57113  #  H_ H_
    3       0.06900      3.26069  #  N_2 N_2
    4       0.06000      3.11815  #  O_2_M O_2_M
    5       0.06000      3.11815  #  O_R O_R
    6       0.12400      2.46155  #  Zn4+2 Zn4+2

Bond Coeffs

    1     103.61325      2.20128  #  N_2 Zn4+2 bond order=0.5
    2     104.44141      2.12294  #  O_2_M Zn4+2 bond order=0.5
    3      48.90184      1.84943  #  H_ Zn4+2 bond order=0.5
    4     357.44038      1.08142  #  C_R H_ bond order=1.0
    5      97.41657      1.20000  #  H_ H_ bond order=1.0
    6     931.53598      1.20133  #  C_R N_2 bond order=3.0
    7     462.65505      1.37926  #  C_R C_R bond order=1.5
    8     646.62465      1.31194  #  C_R O_R bond order=1.5
    9     391.66951      1.45800  #  C_R C_R bond order=1.0
    10    714.55744      1.26901  #  C_R O_2_M bond order=1.5

Angle Coeffs

    1  cosine/periodic        101.82219            1            4  #  N_2 Zn4+2 O_2_M
    2  cosine/periodic         37.39156            1            4  #  H_ Zn4+2 N_2
    3  cosine/periodic         36.20045            1            4  #  H_ Zn4+2 O_2_M
    4  cosine/periodic         97.36576            1            4  #  O_2_M Zn4+2 O_2_M
    5  cosine/periodic         14.11273            1            4  #  H_ Zn4+2 H_
    6  cosine/periodic         11.23300            1            1  #  Zn4+2 H_ Zn4+2
    7  cosine/periodic         10.90893            1            1  #  H_ H_ Zn4+2
    8  cosine/periodic        179.74893           -1            3  #  C_R C_R N_2
    9  cosine/periodic        111.29751           -1            3  #  C_R C_R C_R
    10 cosine/periodic         57.28902           -1            3  #  C_R C_R H_
    11 cosine/periodic         75.41278           -1            3  #  H_ C_R O_R
    12 cosine/periodic        144.05325           -1            3  #  C_R C_R O_R
    13 cosine/periodic         51.62857           -1            3  #  C_R C_R H_
    14 cosine/periodic        102.18328           -1            3  #  C_R C_R C_R
    15 cosine/periodic        137.71425           -1            3  #  C_R C_R O_2_M
    16 cosine/periodic        206.77843           -1            3  #  O_2_M C_R O_2_M
    17 fourier                 84.89470      0.36401      0.41847      0.28800  #  C_R N_2 Zn4+2
    18 fourier                322.57640      0.35263      0.39441      0.28421  #  C_R O_R C_R
    19 cosine/periodic         37.72922           -1            3  #  C_R O_2_M Zn4+2

Dihedral Coeffs

    1      27.96100           -1            2  #  X C_R N_2 X bond order=3.0
    2       6.73711           -1            2  #  X C_R C_R X bond order=1.5
    3       6.73711           -1            2  #  X C_R O_R X bond order=1.5
    4       1.25000           -1            2  #  X C_R C_R X bond order=1.0
    5       6.73711           -1            2  #  X C_R O_2_M X bond order=1.5

Improper Coeffs

    1       2.00000      1.00000     -1.00000      0.00000            1  #  C_R X X X O_2 present=False
    2      16.66667      1.00000     -1.00000      0.00000            1  #  C_R X X X O_2 present=True

Atoms # a, b, c, alpha, beta, gamma: 22.8433711496, 30.9822872640, 30.9822940013, 85.5805679859, 89.5556171241, 89.4159458060 $$$atoms$$$

    1 1     6      0.00000      3.29562     14.01822      0.15118   #   Zn1   0.13796851   0.45210586   0.00489426
    2 1     6      0.00000      6.22602     14.01825      0.15217   #   Zn2   0.26625025   0.45210439   0.00492643
    3 1     2      0.00000      1.14333     14.29244      3.91666   #    H1   0.04247377   0.45157229   0.12679623
    4 1     2      0.00000     10.31442     14.39650      5.34619   #    H2   0.44346683   0.45136837   0.17307503
    5 1     2      0.00000      4.81411     13.48127      0.61652   #    H3   0.20453959   0.43361437   0.01995901
    6 1     2      0.00000      4.95211      9.89745      1.37279   #    H4   0.21194846   0.31605032   0.04444202
    7 1     2      0.00000      4.44322     10.51095     13.87887   #    H5   0.18556948   0.30468380   0.44930837
    8 1     2      0.00000      5.83568      7.88306      1.64132   #    H6   0.25144458   0.25036024   0.05313537
    9 1     2      0.00000      5.87872      5.51415      2.18610   #    H7   0.25421919   0.17253826   0.07077187
   10 1     2      0.00000      3.64834      5.85562     14.10675   #    H8   0.15277998   0.15385029   0.45668547
   11 1     2      0.00000      3.60530      8.22453     13.56197   #    H9   0.15000546   0.23167228   0.43904897
   12 1     2      0.00000      5.04080      3.22773      1.86919   #   H10   0.21865530   0.09952670   0.06051244
   13 1     2      0.00000      4.53189      3.84123     14.37528   #   H11   0.19227562   0.08816011   0.46537888
   14 1     2      0.00000      4.82780     15.74775     15.13155   #   H12   0.19968427   0.47059612   0.48986199
   15 1     2      0.00000      4.91418     14.70380     15.09727   #   H13   0.20394205   0.43698497   0.48875201
   16 1     2      0.00000      5.02602     13.66674     11.58347   #   H14   0.21037650   0.41226794   0.37499811
   17 1     2      0.00000      4.37600      1.08695     10.77538   #   H15   0.18778218   0.00822919   0.34883728
   18 1     2      0.00000      5.90122     13.20302      9.60116   #   H16   0.24950329   0.40224040   0.31082372
   19 1     2      0.00000      5.92496     12.47501      7.28172   #   H17   0.25157757   0.38452226   0.23573505
   20 1     2      0.00000      3.58280      0.53566      6.14691   #   H18   0.15472129   0.00197011   0.19899721
   21 1     2      0.00000      3.55905      1.26367      8.46635   #   H19   0.15264705   0.01968825   0.27408587
   22 1     2      0.00000      5.10802     12.65173      4.97269   #   H20   0.21644262   0.39598132   0.16098362
   23 1     2      0.00000      4.61589     15.56228      4.16460   #   H21   0.19384756   0.49194251   0.13482275
   24 1     2      0.00000      4.72773     14.52521      0.65081   #   H22   0.20028184   0.46722538   0.02106889
   25 1     1      0.00000      0.60015     14.08536      1.07275   #    C1   0.01965834   0.45197615   0.03472856
   26 1     1      0.00000     11.15664     14.16886      2.21947   #    C2   0.48139492   0.45181344   0.07185216
   27 1     1      0.00000     11.55276     14.26465      3.53502   #    C3   0.49829032   0.45162649   0.11444110
   28 1     1      0.00000     10.38229     14.31811      4.26943   #    C4   0.44680251   0.45152172   0.13821660
   29 1     1      0.00000      9.77793     14.16947      2.22801   #    C5   0.42103721   0.45181200   0.07212853
   30 1     1      0.00000      8.91769     14.08573      1.07801   #    C6   0.38376850   0.45197521   0.03489886
   31 1     1      0.00000      4.76081     10.09424      0.32737   #    C7   0.20380609   0.32500781   0.01059825
   32 1     1      0.00000      4.69381     10.27888     14.90782   #    C8   0.19632791   0.29462873   0.48261901
   33 1     1      0.00000      4.75402      8.84516     15.28646   #    C9   0.19948736   0.24740714   0.49487688
   34 1     1      0.00000      5.31198      7.19862      0.98896   #   C10   0.22902406   0.22989372   0.03201612
   35 1     1      0.00000      5.34927      5.83569      1.29715   #   C11   0.23117033   0.18513262   0.04199327
   36 1     1      0.00000      4.73000      4.89352      0.46161   #   C12   0.20473725   0.15680336   0.01494396
   37 1     1      0.00000      4.17204      6.54006     14.75911   #   C13   0.17520058   0.17431678   0.47780473
   38 1     1      0.00000      4.13475      7.90299     14.45092   #   C14   0.17305423   0.21907788   0.46782757
   39 1     1      0.00000      4.79021      3.45980      0.84025   #   C15   0.20789674   0.10958177   0.02720183
   40 1     1      0.00000      4.72320      3.64444     15.42070   #   C16   0.20041825   0.07920266   0.49922262
   41 1     1      0.00000      4.88242     14.73188     11.69776   #   C17   0.20357974   0.44636397   0.37869801
   42 1     1      0.00000      4.73758     15.52312     10.62501   #   C18   0.19721446   0.47457713   0.34396911
   43 1     1      0.00000      4.78382     15.03222      9.22521   #   C19   0.19988641   0.46222075   0.29865271
   44 1     1      0.00000      5.40967     13.82359      8.86526   #   C20   0.22793344   0.42410551   0.28699978
   45 1     1      0.00000      5.43609     13.40939      7.53045   #   C21   0.22968319   0.41406262   0.24378750
   46 1     1      0.00000      4.85810     14.19679      6.52286   #   C22   0.20433817   0.44198973   0.21116819
   47 1     1      0.00000      4.23225     15.40543      6.88282   #   C23   0.17629118   0.48010500   0.22282114
   48 1     1      0.00000      4.20584     15.81963      8.21762   #   C24   0.17454140   0.49014789   0.26603339
   49 1     1      0.00000      4.90435     13.70590      5.12307   #   C25   0.20701020   0.42963338   0.16585179
   50 1     1      0.00000      4.75950     14.49713      4.05031   #   C26   0.20064463   0.45784651   0.13112285
   51 1     1      0.00000      4.76000     14.26286      2.57884   #   C27   0.20122110   0.45395182   0.08348632
   52 1     1      0.00000      4.88183     14.96617     13.16922   #   C28   0.20299906   0.45025898   0.42633438
   53 1     1      0.00000      4.72312      2.15450     15.43421   #   C29   0.20107554   0.03107652   0.49966016
   54 1     1      0.00000      4.76079     11.58417      0.31385   #   C30   0.20314457   0.37313376   0.01016059
   55 1     3      0.00000      1.29571     14.01819      0.15039   #    N1   0.05041991   0.45210703   0.00486882
   56 1     3      0.00000      8.22593     14.01837      0.15285   #    N2   0.35379883   0.45210660   0.00494818
   57 1     5      0.00000      9.34378     14.25941      3.46329   #    O1   0.40161357   0.45163620   0.11211909
   58 1     4      0.00000      5.99370     15.04475     13.66344   #    O2   0.25148646   0.45156373   0.44233387
   59 1     4      0.00000      5.87223     14.18429      2.08538   #    O3   0.25009658   0.45264561   0.06751114
   60 1     4      0.00000      5.83517      1.65449     15.43918   #    O4   0.24997839   0.01492480   0.49982089
   61 1     4      0.00000      5.87285     12.08421      0.30964   #    O5   0.25160461   0.38928455   0.01002408
   62 1     4      0.00000      3.61103      1.65446     15.43843   #    O6   0.15261411   0.01492570   0.49979660
   63 1     4      0.00000      3.64809     14.18427      2.08463   #    O7   0.15273230   0.45264703   0.06748680
   64 1     4      0.00000      3.76957     15.04474     13.66267   #    O8   0.15412218   0.45156512   0.44230902
   65 1     4      0.00000      3.64872     12.08419      0.30887   #    O9   0.15424033   0.38928593   0.00999926
   66 1     6      0.00000      3.41577     15.21076     15.59589   #   Zn1   0.13796851   0.45210586   0.50489426
   67 1     6      0.00000      6.34617     15.21079     15.59688   #   Zn2   0.26625025   0.45210439   0.50492643
   68 1     2      0.00000      1.26347     15.48498     19.36137   #    H1   0.04247377   0.45157229   0.62679623
   69 1     2      0.00000     10.43456     15.58904     20.79090   #    H2   0.44346683   0.45136837   0.67307503
   70 1     2      0.00000      4.93426     14.67381     16.06123   #    H3   0.20453959   0.43361437   0.51995901
   71 1     2      0.00000      5.07226     11.08999     16.81750   #    H4   0.21194846   0.31605032   0.54444202
   72 1     2      0.00000      4.56337     11.70349     29.32358   #    H5   0.18556948   0.30468380   0.94930837
   73 1     2      0.00000      5.95583      9.07560     17.08603   #    H6   0.25144458   0.25036024   0.55313537
   74 1     2      0.00000      5.99887      6.70669     17.63081   #    H7   0.25421919   0.17253826   0.57077187
   75 1     2      0.00000      3.76848      7.04816     29.55146   #    H8   0.15277998   0.15385029   0.95668547
   76 1     2      0.00000      3.72544      9.41707     29.00668   #    H9   0.15000546   0.23167228   0.93904897
   77 1     2      0.00000      5.16094      4.42027     17.31390   #   H10   0.21865530   0.09952670   0.56051244
   78 1     2      0.00000      4.65204      5.03377     29.81999   #   H11   0.19227562   0.08816011   0.96537888
   79 1     2      0.00000      4.94794     16.94029     30.57626   #   H12   0.19968427   0.47059612   0.98986199
   80 1     2      0.00000      5.03432     15.89635     30.54197   #   H13   0.20394205   0.43698497   0.98875201
   81 1     2      0.00000      5.14617     14.85928     27.02818   #   H14   0.21037650   0.41226794   0.87499811
   82 1     2      0.00000      4.49615      2.27949     26.22009   #   H15   0.18778218   0.00822919   0.84883728
   83 1     2      0.00000      6.02137     14.39556     25.04587   #   H16   0.24950329   0.40224040   0.81082372
   84 1     2      0.00000      6.04511     13.66755     22.72643   #   H17   0.25157757   0.38452226   0.73573505
   85 1     2      0.00000      3.70294      1.72820     21.59162   #   H18   0.15472129   0.00197011   0.69899721
   86 1     2      0.00000      3.67920      2.45621     23.91106   #   H19   0.15264705   0.01968825   0.77408587
   87 1     2      0.00000      5.22817     13.84427     20.41740   #   H20   0.21644262   0.39598132   0.66098362
   88 1     2      0.00000      4.73604     16.75482     19.60931   #   H21   0.19384756   0.49194251   0.63482275
   89 1     2      0.00000      4.84788     15.71775     16.09552   #   H22   0.20028184   0.46722538   0.52106889
   90 1     1      0.00000      0.72030     15.27790     16.51745   #    C1   0.01965834   0.45197615   0.53472856
   91 1     1      0.00000     11.27679     15.36140     17.66418   #    C2   0.48139492   0.45181344   0.57185216
   92 1     1      0.00000     11.67291     15.45719     18.97973   #    C3   0.49829032   0.45162649   0.61444110
   93 1     1      0.00000     10.50243     15.51065     19.71414   #    C4   0.44680251   0.45152172   0.63821660
   94 1     1      0.00000      9.89808     15.36202     17.67272   #    C5   0.42103721   0.45181200   0.57212853
   95 1     1      0.00000      9.03784     15.27828     16.52271   #    C6   0.38376850   0.45197521   0.53489886
   96 1     1      0.00000      4.88096     11.28678     15.77208   #    C7   0.20380609   0.32500781   0.51059825
   97 1     1      0.00000      4.81396     11.47143     30.35253   #    C8   0.19632791   0.29462873   0.98261901
   98 1     1      0.00000      4.87416     10.03770     30.73117   #    C9   0.19948736   0.24740714   0.99487688
   99 1     1      0.00000      5.43213      8.39117     16.43367   #   C10   0.22902406   0.22989372   0.53201612
  100 1     1      0.00000      5.46942      7.02823     16.74186   #   C11   0.23117033   0.18513262   0.54199327
  101 1     1      0.00000      4.85015      6.08606     15.90632   #   C12   0.20473725   0.15680336   0.51494396
  102 1     1      0.00000      4.29219      7.73260     30.20382   #   C13   0.17520058   0.17431678   0.97780473
  103 1     1      0.00000      4.25489      9.09553     29.89563   #   C14   0.17305423   0.21907788   0.96782757
  104 1     1      0.00000      4.91035      4.65234     16.28496   #   C15   0.20789674   0.10958177   0.52720183
  105 1     1      0.00000      4.84335      4.83698     30.86541   #   C16   0.20041825   0.07920266   0.99922262
  106 1     1      0.00000      5.00256     15.92443     27.14247   #   C17   0.20357974   0.44636397   0.87869801
  107 1     1      0.00000      4.85772     16.71566     26.06972   #   C18   0.19721446   0.47457713   0.84396911
  108 1     1      0.00000      4.90397     16.22476     24.66992   #   C19   0.19988641   0.46222075   0.79865271
  109 1     1      0.00000      5.52982     15.01614     24.30997   #   C20   0.22793344   0.42410551   0.78699978
  110 1     1      0.00000      5.55623     14.60194     22.97516   #   C21   0.22968319   0.41406262   0.74378750
  111 1     1      0.00000      4.97825     15.38934     21.96757   #   C22   0.20433817   0.44198973   0.71116819
  112 1     1      0.00000      4.35240     16.59797     22.32752   #   C23   0.17629118   0.48010500   0.72282114
  113 1     1      0.00000      4.32598     17.01217     23.66233   #   C24   0.17454140   0.49014789   0.76603339
  114 1     1      0.00000      5.02450     14.89844     20.56777   #   C25   0.20701020   0.42963338   0.66585179
  115 1     1      0.00000      4.87965     15.68968     19.49502   #   C26   0.20064463   0.45784651   0.63112285
  116 1     1      0.00000      4.88014     15.45540     18.02355   #   C27   0.20122110   0.45395182   0.58348632
  117 1     1      0.00000      5.00198     16.15871     28.61393   #   C28   0.20299906   0.45025898   0.92633438
  118 1     1      0.00000      4.84327      3.34704     30.87892   #   C29   0.20107554   0.03107652   0.99966016
  119 1     1      0.00000      4.88094     12.77671     15.75856   #   C30   0.20314457   0.37313376   0.51016059
  120 1     3      0.00000      1.41586     15.21074     15.59510   #    N1   0.05041991   0.45210703   0.50486882
  121 1     3      0.00000      8.34608     15.21091     15.59756   #    N2   0.35379883   0.45210660   0.50494818
  122 1     5      0.00000      9.46393     15.45195     18.90800   #    O1   0.40161357   0.45163620   0.61211909
  123 1     4      0.00000      6.11385     16.23729     29.10815   #    O2   0.25148646   0.45156373   0.94233387
  124 1     4      0.00000      5.99237     15.37683     17.53009   #    O3   0.25009658   0.45264561   0.56751114
  125 1     4      0.00000      5.95531      2.84704     30.88389   #    O4   0.24997839   0.01492480   0.99982089
  126 1     4      0.00000      5.99300     13.27675     15.75435   #    O5   0.25160461   0.38928455   0.51002408
  127 1     4      0.00000      3.73118      2.84701     30.88314   #    O6   0.15261411   0.01492570   0.99979660
  128 1     4      0.00000      3.76824     15.37681     17.52934   #    O7   0.15273230   0.45264703   0.56748680
  129 1     4      0.00000      3.88971     16.23728     29.10738   #    O8   0.15412218   0.45156512   0.94230902
  130 1     4      0.00000      3.76886     13.27673     15.75358   #    O9   0.15424033   0.38928593   0.50999926
  131 1     6      0.00000      3.45353     29.50856      0.15118   #   Zn1   0.13796851   0.95210586   0.00489426
  132 1     6      0.00000      6.38393     29.50859      0.15217   #   Zn2   0.26625025   0.95210439   0.00492643
  133 1     2      0.00000      1.30124     29.78277      3.91666   #    H1   0.04247377   0.95157229   0.12679623
  134 1     2      0.00000     10.47233     29.88684      5.34619   #    H2   0.44346683   0.95136837   0.17307503
  135 1     2      0.00000      4.97202     28.97161      0.61652   #    H3   0.20453959   0.93361437   0.01995901
  136 1     2      0.00000      5.11002     25.38779      1.37279   #    H4   0.21194846   0.81605032   0.04444202
  137 1     2      0.00000      4.60113     26.00129     13.87887   #    H5   0.18556948   0.80468380   0.44930837
  138 1     2      0.00000      5.99359     23.37340      1.64132   #    H6   0.25144458   0.75036024   0.05313537
  139 1     2      0.00000      6.03663     21.00449      2.18610   #    H7   0.25421919   0.67253826   0.07077187
  140 1     2      0.00000      3.80625     21.34596     14.10675   #    H8   0.15277998   0.65385029   0.45668547
  141 1     2      0.00000      3.76321     23.71487     13.56197   #    H9   0.15000546   0.73167228   0.43904897
  142 1     2      0.00000      5.19871     18.71807      1.86919   #   H10   0.21865530   0.59952670   0.06051244
  143 1     2      0.00000      4.68980     19.33157     14.37528   #   H11   0.19227562   0.58816011   0.46537888
  144 1     2      0.00000      4.98570     31.23809     15.13155   #   H12   0.19968427   0.97059612   0.48986199
  145 1     2      0.00000      5.07208     30.19414     15.09727   #   H13   0.20394205   0.93698497   0.48875201
  146 1     2      0.00000      5.18393     29.15708     11.58347   #   H14   0.21037650   0.91226794   0.37499811
  147 1     2      0.00000      4.53391     16.57729     10.77538   #   H15   0.18778218   0.50822919   0.34883728
  148 1     2      0.00000      6.05913     28.69336      9.60116   #   H16   0.24950329   0.90224040   0.31082372
  149 1     2      0.00000      6.08287     27.96535      7.28172   #   H17   0.25157757   0.88452226   0.23573505
  150 1     2      0.00000      3.74070     16.02600      6.14691   #   H18   0.15472129   0.50197011   0.19899721
  151 1     2      0.00000      3.71696     16.75401      8.46635   #   H19   0.15264705   0.51968825   0.27408587
  152 1     2      0.00000      5.26593     28.14207      4.97269   #   H20   0.21644262   0.89598132   0.16098362
  153 1     2      0.00000      4.77380     31.05261      4.16460   #   H21   0.19384756   0.99194251   0.13482275
  154 1     2      0.00000      4.88564     30.01555      0.65081   #   H22   0.20028184   0.96722538   0.02106889
  155 1     1      0.00000      0.75806     29.57570      1.07275   #    C1   0.01965834   0.95197615   0.03472856
  156 1     1      0.00000     11.31455     29.65920      2.21947   #    C2   0.48139492   0.95181344   0.07185216
  157 1     1      0.00000     11.71067     29.75498      3.53502   #    C3   0.49829032   0.95162649   0.11444110
  158 1     1      0.00000     10.54020     29.80845      4.26943   #    C4   0.44680251   0.95152172   0.13821660
  159 1     1      0.00000      9.93584     29.65981      2.22801   #    C5   0.42103721   0.95181200   0.07212853
  160 1     1      0.00000      9.07560     29.57607      1.07801   #    C6   0.38376850   0.95197521   0.03489886
  161 1     1      0.00000      4.91872     25.58458      0.32737   #    C7   0.20380609   0.82500781   0.01059825
  162 1     1      0.00000      4.85172     25.76922     14.90782   #    C8   0.19632791   0.79462873   0.48261901
  163 1     1      0.00000      4.91192     24.33550     15.28646   #    C9   0.19948736   0.74740714   0.49487688
  164 1     1      0.00000      5.46989     22.68896      0.98896   #   C10   0.22902406   0.72989372   0.03201612
  165 1     1      0.00000      5.50718     21.32603      1.29715   #   C11   0.23117033   0.68513262   0.04199327
  166 1     1      0.00000      4.88791     20.38386      0.46161   #   C12   0.20473725   0.65680336   0.01494396
  167 1     1      0.00000      4.32995     22.03039     14.75911   #   C13   0.17520058   0.67431678   0.47780473
  168 1     1      0.00000      4.29266     23.39333     14.45092   #   C14   0.17305423   0.71907788   0.46782757
  169 1     1      0.00000      4.94812     18.95013      0.84025   #   C15   0.20789674   0.60958177   0.02720183
  170 1     1      0.00000      4.88111     19.13478     15.42070   #   C16   0.20041825   0.57920266   0.49922262
  171 1     1      0.00000      5.04033     30.22222     11.69776   #   C17   0.20357974   0.94636397   0.37869801
  172 1     1      0.00000      4.89549     31.01345     10.62501   #   C18   0.19721446   0.97457713   0.34396911
  173 1     1      0.00000      4.94173     30.52256      9.22521   #   C19   0.19988641   0.96222075   0.29865271
  174 1     1      0.00000      5.56758     29.31393      8.86526   #   C20   0.22793344   0.92410551   0.28699978
  175 1     1      0.00000      5.59400     28.89973      7.53045   #   C21   0.22968319   0.91406262   0.24378750
  176 1     1      0.00000      5.01601     29.68713      6.52286   #   C22   0.20433817   0.94198973   0.21116819
  177 1     1      0.00000      4.39016     30.89576      6.88282   #   C23   0.17629118   0.98010500   0.22282114
  178 1     1      0.00000      4.36375     31.30996      8.21762   #   C24   0.17454140   0.99014789   0.26603339
  179 1     1      0.00000      5.06226     29.19624      5.12307   #   C25   0.20701020   0.92963338   0.16585179
  180 1     1      0.00000      4.91741     29.98747      4.05031   #   C26   0.20064463   0.95784651   0.13112285
  181 1     1      0.00000      4.91790     29.75320      2.57884   #   C27   0.20122110   0.95395182   0.08348632
  182 1     1      0.00000      5.03974     30.45651     13.16922   #   C28   0.20299906   0.95025898   0.42633438
  183 1     1      0.00000      4.88103     17.64484     15.43421   #   C29   0.20107554   0.53107652   0.49966016
  184 1     1      0.00000      4.91870     27.07451      0.31385   #   C30   0.20314457   0.87313376   0.01016059
  185 1     3      0.00000      1.45362     29.50853      0.15039   #    N1   0.05041991   0.95210703   0.00486882
  186 1     3      0.00000      8.38384     29.50871      0.15285   #    N2   0.35379883   0.95210660   0.00494818
  187 1     5      0.00000      9.50169     29.74975      3.46329   #    O1   0.40161357   0.95163620   0.11211909
  188 1     4      0.00000      6.15161     30.53509     13.66344   #    O2   0.25148646   0.95156373   0.44233387
  189 1     4      0.00000      6.03013     29.67463      2.08538   #    O3   0.25009658   0.95264561   0.06751114
  190 1     4      0.00000      5.99308     17.14483     15.43918   #    O4   0.24997839   0.51492480   0.49982089
  191 1     4      0.00000      6.03076     27.57455      0.30964   #    O5   0.25160461   0.88928455   0.01002408
  192 1     4      0.00000      3.76894     17.14480     15.43843   #    O6   0.15261411   0.51492570   0.49979660
  193 1     4      0.00000      3.80600     29.67461      2.08463   #    O7   0.15273230   0.95264703   0.06748680
  194 1     4      0.00000      3.92748     30.53508     13.66267   #    O8   0.15412218   0.95156512   0.44230902
  195 1     4      0.00000      3.80662     27.57453      0.30887   #    O9   0.15424033   0.88928593   0.00999926
  196 1     6      0.00000      3.57368     30.70110     15.59589   #   Zn1   0.13796851   0.95210586   0.50489426
  197 1     6      0.00000      6.50408     30.70113     15.59688   #   Zn2   0.26625025   0.95210439   0.50492643
  198 1     2      0.00000      1.42138     30.97532     19.36137   #    H1   0.04247377   0.95157229   0.62679623
  199 1     2      0.00000     10.59247     31.07938     20.79090   #    H2   0.44346683   0.95136837   0.67307503
  200 1     2      0.00000      5.09217     30.16415     16.06123   #    H3   0.20453959   0.93361437   0.51995901
  201 1     2      0.00000      5.23017     26.58033     16.81750   #    H4   0.21194846   0.81605032   0.54444202
  202 1     2      0.00000      4.72128     27.19383     29.32358   #    H5   0.18556948   0.80468380   0.94930837
  203 1     2      0.00000      6.11373     24.56594     17.08603   #    H6   0.25144458   0.75036024   0.55313537
  204 1     2      0.00000      6.15678     22.19703     17.63081   #    H7   0.25421919   0.67253826   0.57077187
  205 1     2      0.00000      3.92639     22.53850     29.55146   #    H8   0.15277998   0.65385029   0.95668547
  206 1     2      0.00000      3.88335     24.90741     29.00668   #    H9   0.15000546   0.73167228   0.93904897
  207 1     2      0.00000      5.31885     19.91061     17.31390   #   H10   0.21865530   0.59952670   0.56051244
  208 1     2      0.00000      4.80995     20.52411     29.81999   #   H11   0.19227562   0.58816011   0.96537888
  209 1     2      0.00000      5.10585     32.43063     30.57626   #   H12   0.19968427   0.97059612   0.98986199
  210 1     2      0.00000      5.19223     31.38668     30.54197   #   H13   0.20394205   0.93698497   0.98875201
  211 1     2      0.00000      5.30408     30.34962     27.02818   #   H14   0.21037650   0.91226794   0.87499811
  212 1     2      0.00000      4.65406     17.76983     26.22009   #   H15   0.18778218   0.50822919   0.84883728
  213 1     2      0.00000      6.17928     29.88590     25.04587   #   H16   0.24950329   0.90224040   0.81082372
  214 1     2      0.00000      6.20302     29.15789     22.72643   #   H17   0.25157757   0.88452226   0.73573505
  215 1     2      0.00000      3.86085     17.21854     21.59162   #   H18   0.15472129   0.50197011   0.69899721
  216 1     2      0.00000      3.83711     17.94655     23.91106   #   H19   0.15264705   0.51968825   0.77408587
  217 1     2      0.00000      5.38608     29.33461     20.41740   #   H20   0.21644262   0.89598132   0.66098362
  218 1     2      0.00000      4.89395     32.24516     19.60931   #   H21   0.19384756   0.99194251   0.63482275
  219 1     2      0.00000      5.00579     31.20809     16.09552   #   H22   0.20028184   0.96722538   0.52106889
  220 1     1      0.00000      0.87821     30.76824     16.51745   #    C1   0.01965834   0.95197615   0.53472856
  221 1     1      0.00000     11.43470     30.85174     17.66418   #    C2   0.48139492   0.95181344   0.57185216
  222 1     1      0.00000     11.83082     30.94753     18.97973   #    C3   0.49829032   0.95162649   0.61444110
  223 1     1      0.00000     10.66034     31.00099     19.71414   #    C4   0.44680251   0.95152172   0.63821660
  224 1     1      0.00000     10.05599     30.85235     17.67272   #    C5   0.42103721   0.95181200   0.57212853
  225 1     1      0.00000      9.19575     30.76862     16.52271   #    C6   0.38376850   0.95197521   0.53489886
  226 1     1      0.00000      5.03886     26.77712     15.77208   #    C7   0.20380609   0.82500781   0.51059825
  227 1     1      0.00000      4.97187     26.96176     30.35253   #    C8   0.19632791   0.79462873   0.98261901