Created by Ryther's code on 2025-07-25 17:28:33.366072, modified by xyan11@uic.edu. 

    344 atoms
    432 bonds
    952 angles
    728 dihedrals
    96 impropers

    9 atom types
    16 bond types
    38 angle types
    9 dihedral types
    2 improper types

0.00000000 28.94912415 xlo xhi
0.00000000 21.23868539 ylo yhi
0.00000000 17.73261182 zlo zhi
0.01701163 2.25222149 1.31503106 xy xz yz 

Masses 

    1     32.065  #   S
    2    15.9994  #   O
    3    15.9994  #   O
    4    14.0067  #   N
    5    14.0067  #   N
    6    1.00794  #   H
    7      65.38  #  Zn
    8    12.0107  #   C
    9    12.0107  #   C

Pair Coeffs

    1       0.27400      3.59478  #  S_3 S_3
    2       0.06000      3.11815  #  O_2_M O_2_M
    3       0.06000      3.11815  #  O_3_M O_3_M
    4       0.06900      3.26069  #  N_R N_R
    5       0.06900      3.26069  #  N_2 N_2
    6       0.04400      2.57113  #  H_ H_
    7       0.12400      2.46155  #  Zn3+2 Zn3+2
    8       0.10500      3.43085  #  C_3 C_3
    9       0.10500      3.43085  #  C_R C_R

Bond Coeffs

    1     131.87166      1.96411  #  O_2_M Zn3+2 bond order=0.5
    2     126.84659      1.98971  #  O_3_M Zn3+2 bond order=0.5
    3      83.70832      1.54605  #  H_ Zn3+2 bond order=1.0
    4     169.60151      1.86783  #  N_2 Zn3+2 bond order=1.0
    5     357.44038      1.08142  #  C_R H_ bond order=1.0
    6     559.94651      0.99025  #  H_ O_3_M bond order=1.0
    7     331.06939      1.10940  #  C_3 H_ bond order=1.0
    8     931.53598      1.20133  #  C_R N_2 bond order=3.0
    9     462.65505      1.37926  #  C_R C_R bond order=1.5
    10    301.29678      1.78592  #  C_R S_3 bond order=1.0
    11    391.66951      1.45800  #  C_R C_R bond order=1.0
    12    663.66675      1.34507  #  C_R N_R bond order=1.5
    13    349.79590      1.51400  #  C_3 C_3 bond order=1.0
    14    369.94394      1.48600  #  C_3 C_R bond order=1.0
    15    714.49531      1.26901  #  C_R O_2_M bond order=1.5
    16    677.96894      1.29140  #  C_R O_3_M bond order=1.5

Angle Coeffs

    1  fourier                139.19354      0.34375      0.37500      0.28125  #  O_2_M Zn3+2 O_3_M
    2  fourier                141.94394      0.34375      0.37500      0.28125  #  O_2_M Zn3+2 O_2_M
    3  fourier                 59.97536      0.34375      0.37500      0.28125  #  H_ Zn3+2 O_2_M
    4  fourier                168.93786      0.34375      0.37500      0.28125  #  N_2 Zn3+2 O_2_M
    5  fourier                 58.51091      0.34375      0.37500      0.28125  #  H_ Zn3+2 O_3_M
    6  fourier                165.48270      0.34375      0.37500      0.28125  #  N_2 Zn3+2 O_3_M
    7  fourier                 72.83028      0.34375      0.37500      0.28125  #  H_ Zn3+2 N_2
    8  fourier                 27.89484      0.34375      0.37500      0.28125  #  H_ Zn3+2 H_
    9  fourier                136.53506      0.34375      0.37500      0.28125  #  O_3_M Zn3+2 O_3_M
    10 cosine/periodic         61.24131            1            1  #  O_3_M H_ Zn3+2
    11 cosine/periodic        179.74893           -1            3  #  C_R C_R N_2
    12 cosine/periodic        101.95051           -1            3  #  C_R C_R S_3
    13 cosine/periodic        111.29751           -1            3  #  C_R C_R C_R
    14 cosine/periodic         57.28902           -1            3  #  C_R C_R H_
    15 cosine/periodic        102.18328           -1            3  #  C_R C_R C_R
    16 cosine/periodic        140.82706           -1            3  #  C_R C_R N_R
    17 cosine/periodic        153.68727           -1            3  #  C_R C_R N_R
    18 cosine/periodic         79.78069           -1            3  #  H_ C_R N_R
    19 cosine/periodic        102.18328           -1            3  #  C_R C_R C_R
    20 fourier                 75.49653      0.34375      0.37500      0.28125  #  H_ C_3 H_
    21 fourier                117.31542      0.34375      0.37500      0.28125  #  C_3 C_3 H_
    22 fourier                121.77380      0.34375      0.37500      0.28125  #  C_R C_3 H_
    23 fourier                220.22341      0.34375      0.37500      0.28125  #  C_3 C_3 C_R
    24 cosine/periodic        133.30340           -1            3  #  C_3 C_R O_2_M
    25 cosine/periodic        206.74247           -1            3  #  O_2_M C_R O_2_M
    26 cosine/periodic        201.34548           -1            3  #  O_2_M C_R O_3_M
    27 cosine/periodic        130.32417           -1            3  #  C_3 C_R O_3_M
    28 cosine/periodic        134.56278           -1            3  #  C_R C_R O_3_M
    29 cosine/periodic        196.17340           -1            3  #  O_3_M C_R O_3_M
    30 cosine/periodic        137.70227           -1            3  #  C_R C_R O_2_M
    31 fourier                211.54307      0.25101      0.03669      0.25034  #  C_R S_3 C_R
    32 fourier                123.90958      0.36401      0.41847      0.28800  #  C_R N_2 Zn3+2
    33 cosine/periodic        120.00052           -1            3  #  C_R N_R C_R
    34 fourier                 50.82090      0.30023      0.26733      0.26675  #  H_ O_3_M Zn3+2
    35 fourier                118.37950      0.30023      0.26733      0.26675  #  C_R O_3_M Zn3+2
    36 fourier                120.49982      0.30023      0.26733      0.26675  #  H_ O_3_M H_
    37 fourier                203.65891      0.30023      0.26733      0.26675  #  C_R O_3_M H_
    38 cosine/periodic         44.54794           -1            3  #  C_R O_2_M Zn3+2

Dihedral Coeffs

    1      27.96100           -1            2  #  X C_R N_2 X bond order=3.0
    2       6.73711           -1            2  #  X C_R C_R X bond order=1.5
    3       1.22984           -1            2  #  X C_R S_3 X bond order=1.0
    4       1.25000           -1            2  #  X C_R C_R X bond order=1.0
    5       6.73711           -1            2  #  X C_R N_R X bond order=1.5
    6       0.11772            1            3  #  X C_3 C_3 X bond order=1.0
    7       0.16667           -1            6  #  X C_3 C_R X bond order=1.0
    8       6.73711           -1            2  #  X C_R O_2_M X bond order=1.5
    9       0.21305           -1            2  #  X C_R O_3_M X bond order=1.5

Improper Coeffs

    1       2.00000      1.00000     -1.00000      0.00000            1  #  C_R X X X O_2 present=False
    2      16.66667      1.00000     -1.00000      0.00000            1  #  C_R X X X O_2 present=True

Atoms # a, b, c, alpha, beta, gamma: 28.9491241474, 21.2386922063, 17.9233738578, 85.7866689007, 82.7812240766, 89.9541076052 $$$atoms$$$

    1 1     7      0.00000      2.36123      4.21334      3.04208   #   Zn1   0.06810773   0.18775823   0.17155272
    2 1     7      0.00000      5.29162      4.21329      3.04203   #   Zn2   0.16933362   0.18775646   0.17155017
    3 1     6      0.00000     12.35838      1.61455      2.15323   #    H1   0.41741268   0.06850094   0.12142785
    4 1     6      0.00000      9.76903      1.61455      2.15323   #    H2   0.32796804   0.06850108   0.12142747
    5 1     6      0.00000      4.39801      3.48224      1.98896   #    H3   0.14310357   0.15701244   0.11216419
    6 1     6      0.00000      4.86506     10.68544      1.14010   #    H4   0.16276008   0.49913124   0.06429421
    7 1     6      0.00000      4.42636      4.97819      1.93899   #    H5   0.14426047   0.22762219   0.10934587
    8 1     6      0.00000      2.79601      8.36081      4.94478   #    H6   0.07466800   0.37639381   0.27885233
    9 1     6      0.00000      2.58691      5.38794      1.96104   #    H7   0.08061166   0.24683765   0.11058963
   10 1     6      0.00000      5.60354      5.45076      7.78918   #    H8   0.15925630   0.22944544   0.43925732
   11 1     6      0.00000      5.57729      3.65436      7.92531   #    H9   0.15780223   0.14438856   0.44693420
   12 1     6      0.00000      3.20454      5.43115      7.02424   #   H10   0.07974200   0.23119327   0.39611996
   13 1     6      0.00000      3.17286      3.63496      7.16189   #   H11   0.07809344   0.14614076   0.40388250
   14 1     6      0.00000      5.10572      5.49779      3.93567   #   H12   0.15895754   0.24511544   0.22194533
   15 1     9      0.00000     13.70636      3.97546      2.96064   #    C1   0.46037051   0.17684272   0.16696033
   16 1     9      0.00000     12.30460      3.68025      2.85968   #    C2   0.41239973   0.16329549   0.16126688
   17 1     9      0.00000     11.76367      2.47025      2.44587   #    C3   0.39556237   0.10776878   0.13793077
   18 1     9      0.00000     10.36375      2.47025      2.44587   #    C4   0.34720434   0.10776884   0.13793059
   19 1     9      0.00000      9.82282      3.68025      2.85968   #    C5   0.32667066   0.16329555   0.16126660
   20 1     9      0.00000      8.42105      3.97547      2.96064   #    C6   0.27779805   0.17684282   0.16696019
   21 1     9      0.00000      3.82637      0.28539      3.03648   #    C7   0.11885203   0.00283493   0.17123706
   22 1     9      0.00000      4.40763     10.18118      1.98126   #    C8   0.14328425   0.47245159   0.11172981
   23 1     9      0.00000      3.82661      8.14124      3.04764   #    C9   0.11859373   0.37268008   0.17186616
   24 1     9      0.00000      3.25346      8.86519      4.10359   #   C10   0.09414475   0.40307941   0.23141473
   25 1     8      0.00000      4.95259      4.57236      7.99179   #   C11   0.13590619   0.18737976   0.45068313
   26 1     8      0.00000      3.82650      4.51179      6.95863   #   C12   0.10153954   0.18813523   0.39242007
   27 1     9      0.00000      3.82646      4.34567      5.47792   #   C13   0.10803631   0.18548373   0.30891809
   28 1     9      0.00000      3.82642      4.08098      0.60619   #   C14   0.12940614   0.19003176   0.03418487
   29 1     9      0.00000      3.82649      6.65227      2.99238   #   C15   0.11887334   0.30276634   0.16875007
   30 1     9      0.00000      3.82639      1.77436      3.09173   #   C16   0.11856907   0.07274840   0.17435292
   31 1     1      0.00000     11.06371      4.75376      3.22681   #    S1   0.36789550   0.21255864   0.18197053
   32 1     5      0.00000     14.83588      4.21336      3.04200   #    N1   0.49902442   0.18775990   0.17154839
   33 1     5      0.00000      7.29153      4.21337      3.04200   #    N2   0.23841741   0.18775996   0.17154833
   34 1     4      0.00000      4.38896      8.82302      2.01362   #    N3   0.14253503   0.40839110   0.11355451
   35 1     4      0.00000      3.27217     10.22331      4.07116   #    N4   0.09489551   0.46713794   0.22958614
   36 1     3      0.00000      4.93847      4.13666      1.10311   #    O1   0.16563937   0.19091837   0.06220785
   37 1     2      0.00000      4.93852      4.28994      4.98097   #    O2   0.14863121   0.18459530   0.28089296
   38 1     3      0.00000      4.93852      6.15256      2.97387   #    O3   0.15738167   0.27930249   0.16770630
   39 1     2      0.00000      4.93846      2.27405      3.11020   #    O4   0.15688887   0.09621119   0.17539445
   40 1     3      0.00000      2.71439      6.15258      2.97391   #    O5   0.08055245   0.27930351   0.16770843
   41 1     2      0.00000      2.71438      4.28998      4.98100   #    O6   0.07180198   0.18459708   0.28089505
   42 1     2      0.00000      2.71433      4.13670      1.10313   #    O7   0.08881021   0.19092013   0.06220904
   43 1     2      0.00000      2.71433      2.27409      3.11022   #    O8   0.08005971   0.09621294   0.17539570
   44 1     7      0.00000      3.48734      4.87085     11.90838   #   Zn1   0.06810773   0.18775823   0.67155272
   45 1     7      0.00000      6.41773      4.87081     11.90834   #   Zn2   0.16933362   0.18775646   0.67155017
   46 1     6      0.00000     13.48449      2.27207     11.01954   #    H1   0.41741268   0.06850094   0.62142785
   47 1     6      0.00000     10.89515      2.27207     11.01953   #    H2   0.32796804   0.06850108   0.62142747
   48 1     6      0.00000      5.52412      4.13975     10.85527   #    H3   0.14310357   0.15701244   0.61216419
   49 1     6      0.00000      5.99117     11.34296     10.00641   #    H4   0.16276008   0.49913124   0.56429421
   50 1     6      0.00000      5.55247      5.63570     10.80529   #    H5   0.14426047   0.22762219   0.60934587
   51 1     6      0.00000      3.92212      9.01832     13.81109   #    H6   0.07466800   0.37639381   0.77885233
   52 1     6      0.00000      3.71302      6.04545     10.82735   #    H7   0.08061166   0.24683765   0.61058963
   53 1     6      0.00000      6.72965      6.10827     16.65549   #    H8   0.15925630   0.22944544   0.93925732
   54 1     6      0.00000      6.70340      4.31187     16.79162   #    H9   0.15780223   0.14438856   0.94693420
   55 1     6      0.00000      4.33065      6.08867     15.89055   #   H10   0.07974200   0.23119327   0.89611996
   56 1     6      0.00000      4.29897      4.29247     16.02820   #   H11   0.07809344   0.14614076   0.90388250
   57 1     6      0.00000      6.23183      6.15531     12.80198   #   H12   0.15895754   0.24511544   0.72194533
   58 1     9      0.00000     14.83247      4.63298     11.82695   #    C1   0.46037051   0.17684272   0.66696033
   59 1     9      0.00000     13.43071      4.33777     11.72599   #    C2   0.41239973   0.16329549   0.66126688
   60 1     9      0.00000     12.88978      3.12777     11.31218   #    C3   0.39556237   0.10776878   0.63793077
   61 1     9      0.00000     11.48986      3.12777     11.31218   #    C4   0.34720434   0.10776884   0.63793059
   62 1     9      0.00000     10.94893      4.33777     11.72598   #    C5   0.32667066   0.16329555   0.66126660
   63 1     9      0.00000      9.54716      4.63298     11.82695   #    C6   0.27779805   0.17684282   0.66696019
   64 1     9      0.00000      4.95248      0.94291     11.90279   #    C7   0.11885203   0.00283493   0.67123706
   65 1     9      0.00000      5.53374     10.83869     10.84757   #    C8   0.14328425   0.47245159   0.61172981
   66 1     9      0.00000      4.95272      8.79876     11.91394   #    C9   0.11859373   0.37268008   0.67186616
   67 1     9      0.00000      4.37957      9.52271     12.96989   #   C10   0.09414475   0.40307941   0.73141473
   68 1     8      0.00000      6.07870      5.22988     16.85809   #   C11   0.13590619   0.18737976   0.95068313
   69 1     8      0.00000      4.95261      5.16931     15.82494   #   C12   0.10153954   0.18813523   0.89242007
   70 1     9      0.00000      4.95257      5.00318     14.34423   #   C13   0.10803631   0.18548373   0.80891809
   71 1     9      0.00000      4.95253      4.73849      9.47249   #   C14   0.12940614   0.19003176   0.53418487
   72 1     9      0.00000      4.95260      7.30979     11.85869   #   C15   0.11887334   0.30276634   0.66875007
   73 1     9      0.00000      4.95250      2.43188     11.95804   #   C16   0.11856907   0.07274840   0.67435292
   74 1     1      0.00000     12.18982      5.41128     12.09312   #    S1   0.36789550   0.21255864   0.68197053
   75 1     5      0.00000     15.96199      4.87088     11.90831   #    N1   0.49902442   0.18775990   0.67154839
   76 1     5      0.00000      8.41764      4.87088     11.90831   #    N2   0.23841741   0.18775996   0.67154833
   77 1     4      0.00000      5.51507      9.48053     10.87992   #    N3   0.14253503   0.40839110   0.61355451
   78 1     4      0.00000      4.39828     10.88082     12.93747   #    N4   0.09489551   0.46713794   0.72958614
   79 1     3      0.00000      6.06458      4.79418      9.96941   #    O1   0.16563937   0.19091837   0.56220785
   80 1     2      0.00000      6.06463      4.94746     13.84727   #    O2   0.14863121   0.18459530   0.78089296
   81 1     3      0.00000      6.06464      6.81007     11.84018   #    O3   0.15738167   0.27930249   0.66770630
   82 1     2      0.00000      6.06457      2.93156     11.97651   #    O4   0.15688887   0.09621119   0.67539445
   83 1     3      0.00000      3.84050      6.81010     11.84021   #    O5   0.08055245   0.27930351   0.66770843
   84 1     2      0.00000      3.84049      4.94750     13.84731   #    O6   0.07180198   0.18459708   0.78089505
   85 1     2      0.00000      3.84044      4.79421      9.96943   #    O7   0.08881021   0.19092013   0.56220904
   86 1     2      0.00000      3.84044      2.93160     11.97653   #    O8   0.08005971   0.09621294   0.67539570
   87 1     7      0.00000      2.36973     14.83268      3.04208   #   Zn1   0.06810773   0.68775823   0.17155272
   88 1     7      0.00000      5.30013     14.83264      3.04203   #   Zn2   0.16933362   0.68775646   0.17155017
   89 1     6      0.00000     12.36689     12.23389      2.15323   #    H1   0.41741268   0.56850094   0.12142785
   90 1     6      0.00000      9.77754     12.23390      2.15323   #    H2   0.32796804   0.56850108   0.12142747
   91 1     6      0.00000      4.40652     14.10158      1.98896   #    H3   0.14310357   0.65701244   0.11216419
   92 1     6      0.00000      4.87356     21.30478      1.14010   #    H4   0.16276008   0.99913124   0.06429421
   93 1     6      0.00000      4.43486     15.59753      1.93899   #    H5   0.14426047   0.72762219   0.10934587
   94 1     6      0.00000      2.80452     18.98015      4.94478   #    H6   0.07466800   0.87639381   0.27885233
   95 1     6      0.00000      2.59541     16.00728      1.96104   #    H7   0.08061166   0.74683765   0.11058963
   96 1     6      0.00000      5.61204     16.07010      7.78918   #    H8   0.15925630   0.72944544   0.43925732
   97 1     6      0.00000      5.58579     14.27370      7.92531   #    H9   0.15780223   0.64438856   0.44693420
   98 1     6      0.00000      3.21305     16.05049      7.02424   #   H10   0.07974200   0.73119327   0.39611996
   99 1     6      0.00000      3.18136     14.25430      7.16189   #   H11   0.07809344   0.64614076   0.40388250
  100 1     6      0.00000      5.11423     16.11714      3.93567   #   H12   0.15895754   0.74511544   0.22194533
  101 1     9      0.00000     13.71487     14.59481      2.96064   #    C1   0.46037051   0.67684272   0.16696033
  102 1     9      0.00000     12.31310     14.29960      2.85968   #    C2   0.41239973   0.66329549   0.16126688
  103 1     9      0.00000     11.77217     13.08959      2.44587   #    C3   0.39556237   0.60776878   0.13793077
  104 1     9      0.00000     10.37225     13.08959      2.44587   #    C4   0.34720434   0.60776884   0.13793059
  105 1     9      0.00000      9.83132     14.29960      2.85968   #    C5   0.32667066   0.66329555   0.16126660
  106 1     9      0.00000      8.42956     14.59481      2.96064   #    C6   0.27779805   0.67684282   0.16696019
  107 1     9      0.00000      3.83488     10.90474      3.03648   #    C7   0.11885203   0.50283493   0.17123706
  108 1     9      0.00000      4.41614     20.80052      1.98126   #    C8   0.14328425   0.97245159   0.11172981
  109 1     9      0.00000      3.83511     18.76059      3.04764   #    C9   0.11859373   0.87268008   0.17186616
  110 1     9      0.00000      3.26197     19.48454      4.10359   #   C10   0.09414475   0.90307941   0.23141473
  111 1     8      0.00000      4.96110     15.19170      7.99179   #   C11   0.13590619   0.68737976   0.45068313
  112 1     8      0.00000      3.83500     15.13113      6.95863   #   C12   0.10153954   0.68813523   0.39242007
  113 1     9      0.00000      3.83497     14.96501      5.47792   #   C13   0.10803631   0.68548373   0.30891809
  114 1     9      0.00000      3.83492     14.70032      0.60619   #   C14   0.12940614   0.69003176   0.03418487
  115 1     9      0.00000      3.83500     17.27161      2.99238   #   C15   0.11887334   0.80276634   0.16875007
  116 1     9      0.00000      3.83490     12.39370      3.09173   #   C16   0.11856907   0.57274840   0.17435292
  117 1     1      0.00000     11.07221     15.37311      3.22681   #    S1   0.36789550   0.71255864   0.18197053
  118 1     5      0.00000     14.84438     14.83271      3.04200   #    N1   0.49902442   0.68775990   0.17154839
  119 1     5      0.00000      7.30004     14.83271      3.04200   #    N2   0.23841741   0.68775996   0.17154833
  120 1     4      0.00000      4.39747     19.44236      2.01362   #    N3   0.14253503   0.90839110   0.11355451
  121 1     4      0.00000      3.28067     20.84265      4.07116   #    N4   0.09489551   0.96713794   0.22958614
  122 1     3      0.00000      4.94697     14.75600      1.10311   #    O1   0.16563937   0.69091837   0.06220785
  123 1     2      0.00000      4.94702     14.90929      4.98097   #    O2   0.14863121   0.68459530   0.28089296
  124 1     3      0.00000      4.94703     16.77190      2.97387   #    O3   0.15738167   0.77930249   0.16770630
  125 1     2      0.00000      4.94697     12.89339      3.11020   #    O4   0.15688887   0.59621119   0.17539445
  126 1     3      0.00000      2.72290     16.77192      2.97391   #    O5   0.08055245   0.77930351   0.16770843
  127 1     2      0.00000      2.72289     14.90933      4.98100   #    O6   0.07180198   0.68459708   0.28089505
  128 1     2      0.00000      2.72284     14.75604      1.10313   #    O7   0.08881021   0.69092013   0.06220904
  129 1     2      0.00000      2.72283     12.89343      3.11022   #    O8   0.08005971   0.59621294   0.17539570
  130 1     7      0.00000      3.49584     15.49019     11.90838   #   Zn1   0.06810773   0.68775823   0.67155272
  131 1     7      0.00000      6.42624     15.49015     11.90834   #   Zn2   0.16933362   0.68775646   0.67155017
  132 1     6      0.00000     13.49300     12.89141     11.01954   #    H1   0.41741268   0.56850094   0.62142785
  133 1     6      0.00000     10.90365     12.89141     11.01953   #    H2   0.32796804   0.56850108   0.62142747
  134 1     6      0.00000      5.53263     14.75910     10.85527   #    H3   0.14310357   0.65701244   0.61216419
  135 1     6      0.00000      5.99967     21.96230     10.00641   #    H4   0.16276008   0.99913124   0.56429421
  136 1     6      0.00000      5.56097     16.25505     10.80529   #    H5   0.14426047   0.72762219   0.60934587
  137 1     6      0.00000      3.93063     19.63767     13.81109   #    H6   0.07466800   0.87639381   0.77885233
  138 1     6      0.00000      3.72152     16.66479     10.82735   #    H7   0.08061166   0.74683765   0.61058963
  139 1     6      0.00000      6.73816     16.72761     16.65549   #    H8   0.15925630   0.72944544   0.93925732
  140 1     6      0.00000      6.71190     14.93121     16.79162   #    H9   0.15780223   0.64438856   0.94693420
  141 1     6      0.00000      4.33916     16.70801     15.89055   #   H10   0.07974200   0.73119327   0.89611996
  142 1     6      0.00000      4.30747     14.91181     16.02820   #   H11   0.07809344   0.64614076   0.90388250
  143 1     6      0.00000      6.24034     16.77465     12.80198   #   H12   0.15895754   0.74511544   0.72194533
  144 1     9      0.00000     14.84098     15.25232     11.82695   #    C1   0.46037051   0.67684272   0.66696033
  145 1     9      0.00000     13.43921     14.95711     11.72599   #    C2   0.41239973   0.66329549   0.66126688
  146 1     9      0.00000     12.89828     13.74711     11.31218   #    C3   0.39556237   0.60776878   0.63793077
  147 1     9      0.00000     11.49836     13.74711     11.31218   #    C4   0.34720434   0.60776884   0.63793059
  148 1     9      0.00000     10.95743     14.95711     11.72598   #    C5   0.32667066   0.66329555   0.66126660
  149 1     9      0.00000      9.55567     15.25233     11.82695   #    C6   0.27779805   0.67684282   0.66696019
  150 1     9      0.00000      4.96099     11.56225     11.90279   #    C7   0.11885203   0.50283493   0.67123706
  151 1     9      0.00000      5.54225     21.45804     10.84757   #    C8   0.14328425   0.97245159   0.61172981
  152 1     9      0.00000      4.96122     19.41810     11.91394   #    C9   0.11859373   0.87268008   0.67186616
  153 1     9      0.00000      4.38808     20.14205     12.96989   #   C10   0.09414475   0.90307941   0.73141473
  154 1     8      0.00000      6.08721     15.84922     16.85809   #   C11   0.13590619   0.68737976   0.95068313
  155 1     8      0.00000      4.96111     15.78865     15.82494   #   C12   0.10153954   0.68813523   0.89242007
  156 1     9      0.00000      4.96108     15.62253     14.34423   #   C13   0.10803631   0.68548373   0.80891809
  157 1     9      0.00000      4.96104     15.35784      9.47249   #   C14   0.12940614   0.69003176   0.53418487
  158 1     9      0.00000      4.96111     17.92913     11.85869   #   C15   0.11887334   0.80276634   0.66875007
  159 1     9      0.00000      4.96101     13.05122     11.95804   #   C16   0.11856907   0.57274840   0.67435292
  160 1     1      0.00000     12.19832     16.03062     12.09312   #    S1   0.36789550   0.71255864   0.68197053
  161 1     5      0.00000     15.97050     15.49022     11.90831   #    N1   0.49902442   0.68775990   0.67154839
  162 1     5      0.00000      8.42615     15.49022     11.90831   #    N2   0.23841741   0.68775996   0.67154833
  163 1     4      0.00000      5.52358     20.09988     10.87992   #    N3   0.14253503   0.90839110   0.61355451
  164 1     4      0.00000      4.40678     21.50017     12.93747   #    N4   0.09489551   0.96713794   0.72958614
  165 1     3      0.00000      6.07308     15.41352      9.96941   #    O1   0.16563937   0.69091837   0.56220785
  166 1     2      0.00000      6.07313     15.56680     13.84727   #    O2   0.14863121   0.68459530   0.78089296
  167 1     3      0.00000      6.07314     17.42941     11.84018   #    O3   0.15738167   0.77930249   0.66770630
  168 1     2      0.00000      6.07308     13.55091     11.97651   #    O4   0.15688887   0.59621119   0.67539445
  169 1     3      0.00000      3.84901     17.42944     11.84021   #    O5   0.08055245   0.77930351   0.66770843
  170 1     2      0.00000      3.84900     15.56684     13.84731   #    O6   0.07180198   0.68459708   0.78089505
  171 1     2      0.00000      3.84895     15.41356      9.96943   #    O7   0.08881021   0.69092013   0.56220904
  172 1     2      0.00000      3.84894     13.55095     11.97653   #    O8   0.08005971   0.59621294   0.67539570
  173 1     7      0.00000     16.83579      4.21334      3.04208   #   Zn1   0.56810773   0.18775823   0.17155272
  174 1     7      0.00000     19.76619      4.21329      3.04203   #   Zn2   0.66933362   0.18775646   0.17155017
  175 1     6      0.00000     26.83294      1.61455      2.15323   #    H1   0.91741268   0.06850094   0.12142785
  176 1     6      0.00000     24.24360      1.61455      2.15323   #    H2   0.82796804   0.06850108   0.12142747
  177 1     6      0.00000     18.87257      3.48224      1.98896   #    H3   0.64310357   0.15701244   0.11216419
  178 1     6      0.00000     19.33962     10.68544      1.14010   #    H4   0.66276008   0.49913124   0.06429421
  179 1     6      0.00000     18.90092      4.97819      1.93899   #    H5   0.64426047   0.22762219   0.10934587
  180 1     6      0.00000     17.27058      8.36081      4.94478   #    H6   0.57466800   0.37639381   0.27885233
  181 1     6      0.00000     17.06147      5.38794      1.96104   #    H7   0.58061166   0.24683765   0.11058963
  182 1     6      0.00000     20.07810      5.45076      7.78918   #    H8   0.65925630   0.22944544   0.43925732
  183 1     6      0.00000     20.05185      3.65436      7.92531   #    H9   0.65780223   0.14438856   0.44693420
  184 1     6      0.00000     17.67911      5.43115      7.02424   #   H10   0.57974200   0.23119327   0.39611996
  185 1     6      0.00000     17.64742      3.63496      7.16189   #   H11   0.57809344   0.14614076   0.40388250
  186 1     6      0.00000     19.58028      5.49779      3.93567   #   H12   0.65895754   0.24511544   0.22194533
  187 1     9      0.00000     28.18093      3.97546      2.96064   #    C1   0.96037051   0.17684272   0.16696033
  188 1     9      0.00000     26.77916      3.68025      2.85968   #    C2   0.91239973   0.16329549   0.16126688
  189 1     9      0.00000     26.23823      2.47025      2.44587   #    C3   0.89556237   0.10776878   0.13793077
  190 1     9      0.00000     24.83831      2.47025      2.44587   #    C4   0.84720434   0.10776884   0.13793059
  191 1     9      0.00000     24.29738      3.68025      2.85968   #    C5   0.82667066   0.16329555   0.16126660
  192 1     9      0.00000     22.89561      3.97547      2.96064   #    C6   0.77779805   0.17684282   0.16696019
  193 1     9      0.00000     18.30094      0.28539      3.03648   #    C7   0.61885203   0.00283493   0.17123706
  194 1     9      0.00000     18.88219     10.18118      1.98126   #    C8   0.64328425   0.47245159   0.11172981
  195 1     9      0.00000     18.30117      8.14124      3.04764   #    C9   0.61859373   0.37268008   0.17186616
  196 1     9      0.00000     17.72802      8.86519      4.10359   #   C10   0.59414475   0.40307941   0.23141473
  197 1     8      0.00000     19.42715      4.57236      7.99179   #   C11   0.63590619   0.18737976   0.45068313
  198 1     8      0.00000     18.30106      4.51179      6.95863   #   C12   0.60153954   0.18813523   0.39242007
  199 1     9      0.00000     18.30103      4.34567      5.47792   #   C13   0.60803631   0.18548373   0.30891809
  200 1     9      0.00000     18.30098      4.08098      0.60619   #   C14   0.62940614   0.19003176   0.03418487
  201 1     9      0.00000     18.30105      6.65227      2.99238   #   C15   0.61887334   0.30276634   0.16875007
  202 1     9      0.00000     18.30095      1.77436      3.09173   #   C16   0.61856907   0.07274840   0.17435292
  203 1     1      0.00000     25.53827      4.75376      3.22681   #    S1   0.86789550   0.21255864   0.18197053