Created by Ryther's code on 2025-07-31 16:51:47.045511, modified by xyan11@uic.edu. 

    1392 atoms
    1504 bonds
    2736 angles
    3648 dihedrals
    512 impropers

    9 atom types
    14 bond types
    26 angle types
    6 dihedral types
    2 improper types

0.00000000 19.9634 xlo xhi
0.00000000 33.2764 ylo yhi
0.00000000 32.03972926 zlo zhi
0.0 -9.98181733 -6.24638267 xy xz yz 

Masses 

    1     79.904  #  Br
    2    12.0107  #   C
    3    12.0107  #   C
    4    112.411  #  Cd
    5    112.411  #  Cd
    6    1.00794  #   H
    7    14.0067  #   N
    8    14.0067  #   N
    9    15.9994  #   O

Pair Coeffs

    1       0.25100      3.73197  #  Br Br
    2       0.10500      3.43085  #  C_3 C_3
    3       0.10500      3.43085  #  C_R C_R
    4       0.22800      2.53728  #  Cd4f2 Cd4f2
    5       0.22800      2.53728  #  Cd8f4 Cd8f4
    6       0.04400      2.57113  #  H_ H_
    7       0.06900      3.26069  #  N_3 N_3
    8       0.06900      3.26069  #  N_R N_R
    9       0.06000      3.11815  #  O_1 O_1

Bond Coeffs

    1     108.10231      2.34604  #  Cd4f2 N_R bond order=0.5
    2      58.73733      2.86550  #  Br Cd4f2 bond order=0.5
    3      84.96955      2.54210  #  Cd8f4 N_R bond order=0.5
    4      48.23032      3.06008  #  Br Cd8f4 bond order=0.5
    5     357.44038      1.08142  #  C_R H_ bond order=1.0
    6     331.06939      1.10940  #  C_3 H_ bond order=1.0
    7     529.41782      1.04342  #  H_ N_R bond order=1.0
    8     462.65505      1.37926  #  C_R C_R bond order=1.5
    9     663.66675      1.34507  #  C_R N_R bond order=1.5
    10    561.44721      1.42220  #  C_R N_R bond order=1.0
    11    801.63629      1.22125  #  C_R O_1 bond order=2.0
    12    560.26893      1.42319  #  C_R N_3 bond order=1.0
    13    349.79590      1.51400  #  C_3 C_3 bond order=1.0
    14    528.59298      1.45107  #  C_3 N_3 bond order=1.0

Angle Coeffs

    1  cosine/periodic         61.59219            1            4  #  Br Cd4f2 N_R
    2  cosine/periodic         88.25163            1            4  #  N_R Cd4f2 N_R
    3  cosine/periodic         47.47644            1            4  #  Br Cd4f2 Br
    4  fourier                 80.09781      0.34375      0.37500      0.28125  #  N_R Cd8f4 N_R
    5  fourier                 58.33598      0.34375      0.37500      0.28125  #  Br Cd8f4 N_R
    6  fourier                 45.01464      0.34375      0.37500      0.28125  #  Br Cd8f4 Br
    7  cosine/periodic         57.28902           -1            3  #  C_R C_R H_
    8  cosine/periodic         79.78069           -1            3  #  H_ C_R N_R
    9  cosine/periodic        153.68727           -1            3  #  C_R C_R N_R
    10 cosine/periodic        111.29751           -1            3  #  C_R C_R C_R
    11 cosine/periodic        141.32633           -1            3  #  C_R C_R N_R
    12 cosine/periodic        220.52511           -1            3  #  N_R C_R O_1
    13 cosine/periodic        194.72778           -1            3  #  N_3 C_R N_R
    14 cosine/periodic        200.63741           -1            3  #  N_3 C_R O_1
    15 fourier                 75.49653      0.34375      0.37500      0.28125  #  H_ C_3 H_
    16 fourier                117.31542      0.34375      0.37500      0.28125  #  C_3 C_3 H_
    17 fourier                169.76232      0.34375      0.37500      0.28125  #  H_ C_3 N_3
    18 fourier                303.26422      0.34375      0.37500      0.28125  #  C_3 C_3 N_3
    19 cosine/periodic         30.39604           -1            3  #  C_R N_R Cd8f4
    20 cosine/periodic        120.00052           -1            3  #  C_R N_R C_R
    21 fourier                268.48217      0.31751      0.31322      0.27250  #  C_3 N_3 C_R
    22 fourier                260.86939      0.31751      0.31322      0.27250  #  C_3 N_3 C_3
    23 cosine/periodic        110.13309           -1            3  #  C_R N_R C_R
    24 cosine/periodic         56.28693           -1            3  #  C_R N_R H_
    25 cosine/periodic         62.53561           -1            3  #  C_R N_R H_
    26 cosine/periodic         36.49488           -1            3  #  C_R N_R Cd4f2

Dihedral Coeffs

    1       3.36856           -1            2  #  X C_R C_R X bond order=1.5
    2       3.36856           -1            2  #  X C_R N_R X bond order=1.5
    3       1.25000           -1            2  #  X C_R N_R X bond order=1.0
    4       0.25000           -1            6  #  X C_R N_3 X bond order=1.0
    5       0.11772            1            3  #  X C_3 C_3 X bond order=1.0
    6       0.08138            1            3  #  X C_3 N_3 X bond order=1.0

Improper Coeffs

    1       2.00000      1.00000     -1.00000      0.00000            1  #  C_R X X X O_2 present=False
    2       2.00000      1.00000     -1.00000      0.00000            1  #  N_R X X X O_2 present=False

Atoms # a, b, c, alpha, beta, gamma: 19.9634000000, 33.2764000000, 34.1350000000, 100.5440000000, 107.0030000000, 90.0000000000 $$$atoms$$$

    1 1     4      0.00000      0.00000      0.00000      0.00000   #   Cd1   0.00000000   0.00000000   0.00000000
    2 1     5      0.00000      0.00000      8.31910      0.00000   #   Cd2   0.00000000   0.25000000   0.00000000
    3 1     6      0.00000     -3.34492     10.81826     15.60014   #    H1   0.07590000   0.41650000   0.48690000
    4 1     6      0.00000      3.56142     11.75522     13.58485   #    H2   0.39040000   0.43285000   0.42400000
    5 1     6      0.00000      3.98565     10.14187     12.03733   #    H3   0.38750000   0.37530000   0.37570000
    6 1     6      0.00000     -2.86280      9.11981     14.19040   #    H4   0.07805000   0.35720000   0.44290000
    7 1     6      0.00000     -2.60826      5.62420     10.05086   #    H5   0.02620000   0.22790000   0.31370000
    8 1     6      0.00000     -2.58031      6.36326     11.43178   #    H6   0.04915000   0.25820000   0.35680000
    9 1     6      0.00000     -1.93249      7.95539      9.23065   #    H7   0.04725000   0.29315000   0.28810000
   10 1     6      0.00000     -1.31762      8.02267     10.66923   #    H8   0.10050000   0.30360000   0.33300000
   11 1     6      0.00000      6.47610      7.84630      7.87857   #    H9   0.44735000   0.28195000   0.24590000
   12 1     6      0.00000      4.96487      8.26392      7.85294   #   H10   0.37125000   0.29435000   0.24510000
   13 1     6      0.00000      4.33402      6.53597      9.13773   #   H11   0.35970000   0.24995000   0.28520000
   14 1     6      0.00000      5.59671      5.68667      8.76607   #   H12   0.41715000   0.22225000   0.27360000
   15 1     6      0.00000      3.21007      5.96814     11.23954   #   H13   0.33620000   0.24520000   0.35080000
   16 1     6      0.00000      0.66772      7.40341     14.00777   #   H14   0.25205000   0.30455000   0.43720000
   17 1     6      0.00000      2.21289      6.85754     15.58733   #   H15   0.35410000   0.29740000   0.48650000
   18 1     6      0.00000      4.69534      5.56533     12.94725   #   H16   0.43725000   0.24310000   0.40410000
   19 1     6      0.00000     -3.31397      7.91624     12.31607   #   H17   0.02620000   0.31005000   0.38440000
   20 1     6      0.00000      0.16565      7.57030     11.67528   #   H18   0.19050000   0.29590000   0.36440000
   21 1     6      0.00000      1.64598     11.01585      0.41972   #   H19   0.08900000   0.33350000   0.01310000
   22 1     6      0.00000      8.55231     10.07889      2.43502   #   H20   0.46640000   0.31715000   0.07600000
   23 1     6      0.00000     -1.00517     11.69224      3.98254   #   H21   0.01180000   0.37470000   0.12430000
   24 1     6      0.00000      2.12809     12.71430      1.82947   #   H22   0.13515000   0.39280000   0.05710000
   25 1     6      0.00000      2.38261     -0.42829      5.96900   #   H23   0.21250000   0.02210000   0.18630000
   26 1     6      0.00000      2.41056     15.47085      4.58809   #   H24   0.19235000   0.49180000   0.14320000
   27 1     6      0.00000      3.05837     13.87871      6.78922   #   H25   0.25915000   0.45685000   0.21190000
   28 1     6      0.00000      3.67325     13.81144      5.35063   #   H26   0.26750000   0.44640000   0.16700000
   29 1     6      0.00000      1.48525     13.98781      8.14130   #   H27   0.20145000   0.46805000   0.25410000
   30 1     6      0.00000     -0.02598     13.57019      8.16693   #   H28   0.12615000   0.45565000   0.25490000
   31 1     6      0.00000     -0.65682     -1.34006      6.88213   #   H29   0.07450000   0.00005000   0.21480000
   32 1     6      0.00000      0.60586     -0.49076      7.25379   #   H30   0.14355000   0.02775000   0.22640000
   33 1     6      0.00000      8.20095     -0.77223      4.78033   #   H31   0.48540000   0.00480000   0.14920000
   34 1     6      0.00000      5.65862     14.43070      2.01209   #   H32   0.31485000   0.44545000   0.06280000
   35 1     6      0.00000      7.20379     14.97657      0.43254   #   H33   0.36760000   0.45260000   0.01350000
   36 1     6      0.00000     -0.29547     -0.36942      3.07261   #   H34   0.03315000   0.00690000   0.09590000
   37 1     6      0.00000      1.67691     13.91787      3.70379   #   H35   0.14180000   0.43995000   0.11560000
   38 1     6      0.00000      5.15653     14.26380      4.34459   #   H36   0.32610000   0.45410000   0.13560000
   39 1     6      0.00000      8.33572      2.69675      0.41972   #   H37   0.42410000   0.08350000   0.01310000
   40 1     6      0.00000      1.42937      1.75979      2.43502   #   H38   0.10960000   0.06715000   0.07600000
   41 1     6      0.00000      1.00514      3.37314      3.98254   #   H39   0.11250000   0.12470000   0.12430000
   42 1     6      0.00000      7.85359      4.39520      1.82947   #   H40   0.42195000   0.14280000   0.05710000
   43 1     6      0.00000      7.59905      7.89081      5.96900   #   H41   0.47380000   0.27210000   0.18630000
   44 1     6      0.00000      7.57110      7.15175      4.58809   #   H42   0.45085000   0.24180000   0.14320000
   45 1     6      0.00000      6.92328      5.55961      6.78922   #   H43   0.45275000   0.20685000   0.21190000
   46 1     6      0.00000      6.30841      5.49234      5.35063   #   H44   0.39950000   0.19640000   0.16700000
   47 1     6      0.00000     -1.48531      5.66871      8.14130   #   H45   0.05265000   0.21805000   0.25410000
   48 1     6      0.00000      0.02592      5.25109      8.16693   #   H46   0.12875000   0.20565000   0.25490000
   49 1     6      0.00000      0.65677      6.97904      6.88213   #   H47   0.14030000   0.25005000   0.21480000
   50 1     6      0.00000     -0.60592      7.82834      7.25379   #   H48   0.08285000   0.27775000   0.22640000
   51 1     6      0.00000      1.78072      7.54687      4.78033   #   H49   0.16380000   0.25480000   0.14920000
   52 1     6      0.00000      4.32307      6.11160      2.01209   #   H50   0.24795000   0.19545000   0.06280000
   53 1     6      0.00000      2.77791      6.65747      0.43254   #   H51   0.14590000   0.20260000   0.01350000
   54 1     6      0.00000      0.29545      7.94968      3.07261   #   H52   0.06275000   0.25690000   0.09590000
   55 1     6      0.00000      8.30476      5.59877      3.70379   #   H53   0.47380000   0.18995000   0.11560000
   56 1     6      0.00000      4.82514      5.94470      4.34459   #   H54   0.30950000   0.20410000   0.13560000
   57 1     6      0.00000      3.34481      2.49916     15.60014   #   H55   0.41100000   0.16650000   0.48690000
   58 1     6      0.00000     -3.56152      3.43612     13.58485   #   H56   0.03360000   0.18285000   0.42400000
   59 1     6      0.00000      5.99596      1.82277     12.03733   #   H57   0.48820000   0.12530000   0.37570000
   60 1     6      0.00000      2.86270      0.80071     14.19040   #   H58   0.36485000   0.10720000   0.44290000
   61 1     6      0.00000      2.60818     13.94330     10.05086   #   H59   0.28750000   0.47790000   0.31370000
   62 1     6      0.00000      2.58023     -1.95584     11.43178   #   H60   0.30765000   0.00820000   0.35680000
   63 1     6      0.00000      1.93242     -0.36371      9.23065   #   H61   0.24085000   0.04315000   0.28810000
   64 1     6      0.00000      1.31755     -0.29643     10.66923   #   H62   0.23250000   0.05360000   0.33300000
   65 1     6      0.00000      3.50554     -0.47280      7.87857   #   H63   0.29855000   0.03195000   0.24590000
   66 1     6      0.00000      5.01677     -0.05518      7.85294   #   H64   0.37385000   0.04435000   0.24510000
   67 1     6      0.00000      5.64761     14.85507      9.13773   #   H65   0.42550000   0.49995000   0.28520000
   68 1     6      0.00000      4.38493     14.00577      8.76607   #   H66   0.35645000   0.47225000   0.27360000
   69 1     6      0.00000     -3.21016     14.28724     11.23954   #   H67   0.01460000   0.49520000   0.35080000
   70 1     6      0.00000     -0.66783     -0.91569     14.00777   #   H68   0.18515000   0.05455000   0.43720000
   71 1     6      0.00000     -2.21300     -1.46156     15.58733   #   H69   0.13240000   0.04740000   0.48650000
   72 1     6      0.00000      5.28626     13.88443     12.94725   #   H70   0.46685000   0.49310000   0.40410000
   73 1     6      0.00000      3.31388     -0.40286     12.31607   #   H71   0.35820000   0.06005000   0.38440000
   74 1     6      0.00000     -0.16574     -0.74880     11.67528   #   H72   0.17390000   0.04590000   0.36440000
   75 1     3      0.00000     -3.89691     10.69405     14.86323   #    C1   0.03675000   0.40845000   0.46390000
   76 1     3      0.00000      4.32702     11.23921     13.69698   #    C2   0.43050000   0.41800000   0.42750000
   77 1     3      0.00000      4.55460     10.24736     12.76783   #    C3   0.42740000   0.38275000   0.39850000
   78 1     3      0.00000     -3.59746      9.66329     14.01418   #    C4   0.03850000   0.37250000   0.43740000
   79 1     3      0.00000      5.62664      9.42808     12.93348   #    C5   0.48368500   0.35910000   0.40367000
   80 1     3      0.00000      5.37610      8.04406     10.90088   #    C6   0.43941500   0.30560000   0.34023000
   81 1     2      0.00000     -2.69809      6.49110     10.47731   #    C7   0.02835500   0.25645000   0.32701000
   82 1     2      0.00000     -1.58513      7.41903      9.95923   #    C8   0.07602000   0.28130000   0.31084000
   83 1     2      0.00000      5.56976      7.50687      7.81032   #    C9   0.40088500   0.27135000   0.24377000
   84 1     2      0.00000      5.29226      6.57943      8.99163   #   C10   0.40542000   0.25040000   0.28064000
   85 1     3      0.00000      0.72463      6.44110     10.20465   #   C11   0.19555000   0.25335000   0.31850000
   86 1     3      0.00000      2.97949      6.16937     12.11903   #   C12   0.33837500   0.25640000   0.37825000
   87 1     3      0.00000      1.75374      6.71864     12.41668   #   C13   0.28162000   0.27465000   0.38754000
   88 1     3      0.00000      1.47225      7.00727     13.76106   #   C14   0.28850000   0.29120000   0.42950000
   89 1     3      0.00000      2.41851      6.69010     14.69662   #   C15   0.35050000   0.28715000   0.45870000
   90 1     3      0.00000      3.86387      5.92286     13.16160   #   C16   0.39894500   0.25510000   0.41079000
   91 1     3      0.00000      1.09399     11.14006      1.15663   #   C17   0.07285000   0.34155000   0.03610000
   92 1     3      0.00000     -0.66379     10.59490      2.32288   #   C18   0.00300000   0.33200000   0.07250000
   93 1     3      0.00000     -0.43621     11.58675      3.25203   #   C19   0.02890000   0.36725000   0.10150000
   94 1     3      0.00000      1.39344     12.17082      2.00569   #   C20   0.10110000   0.37750000   0.06260000
   95 1     3      0.00000      0.63582     12.40603      3.08639   #   C21   0.08001500   0.39090000   0.09633000
   96 1     3      0.00000      0.38527     13.79005      5.11899   #   C22   0.09918500   0.44440000   0.15977000
   97 1     2      0.00000      2.29278     15.34301      5.54255   #   C23   0.20134500   0.49355000   0.17299000
   98 1     2      0.00000      3.40573     14.41508      6.06064   #   C24   0.26518000   0.46870000   0.18916000
   99 1     2      0.00000      0.57891     14.32724      8.20954   #   C25   0.15711500   0.47865000   0.25623000
  100 1     2      0.00000      0.30142     15.25468      7.02824   #   C26   0.12478000   0.49960000   0.21936000
  101 1     3      0.00000      5.71550     15.39301      5.81521   #   C27   0.37705000   0.49665000   0.18150000
  102 1     3      0.00000      7.97037     15.66473      3.90084   #   C28   0.46012500   0.49360000   0.12175000
  103 1     3      0.00000      6.74462     15.11547      3.60319   #   C29   0.39408000   0.47535000   0.11246000
  104 1     3      0.00000      6.46314     14.82684      2.25880   #   C30   0.35900000   0.45880000   0.07050000
  105 1     3      0.00000      7.40941     15.14401      1.32324   #   C31   0.39180000   0.46285000   0.04130000
  106 1     3      0.00000      8.85476     15.91125      2.85826   #   C32   0.48815500   0.49490000   0.08921000
  107 1     3      0.00000      8.88770      2.82096      1.15663   #   C33   0.46325000   0.09155000   0.03610000
  108 1     3      0.00000      0.66377      2.27580      2.32288   #   C34   0.06950000   0.08200000   0.07250000
  109 1     3      0.00000      0.43619      3.26765      3.25203   #   C35   0.07260000   0.11725000   0.10150000
  110 1     3      0.00000      8.58825      3.85172      2.00569   #   C36   0.46150000   0.12750000   0.06260000
  111 1     3      0.00000     -0.63585      4.08693      3.08639   #   C37   0.01631500   0.14090000   0.09633000
  112 1     3      0.00000     -0.38531      5.47095      5.11899   #   C38   0.06058500   0.19440000   0.15977000
  113 1     2      0.00000      7.68888      7.02391      5.54255   #   C39   0.47164500   0.24355000   0.17299000
  114 1     2      0.00000      6.57592      6.09598      6.06064   #   C40   0.42398000   0.21870000   0.18916000
  115 1     2      0.00000     -0.57897      6.00814      8.20954   #   C41   0.09911500   0.22865000   0.25623000
  116 1     2      0.00000     -0.30147      6.93558      7.02824   #   C42   0.09458000   0.24960000   0.21936000
  117 1     3      0.00000      4.26616      7.07391      5.81521   #   C43   0.30445000   0.24665000   0.18150000
  118 1     3      0.00000      2.01130      7.34563      3.90084   #   C44   0.16162500   0.24360000   0.12175000
  119 1     3      0.00000      3.23705      6.79637      3.60319   #   C45   0.21838000   0.22535000   0.11246000
  120 1     3      0.00000      3.51854      6.50774      2.25880   #   C46   0.21150000   0.20880000   0.07050000
  121 1     3      0.00000      2.57228      6.82491      1.32324   #   C47   0.14950000   0.21285000   0.04130000
  122 1     3      0.00000      1.12692      7.59215      2.85826   #   C48   0.10105500   0.24490000   0.08921000
  123 1     3      0.00000      3.89680      2.37495     14.86323   #   C49   0.42715000   0.15845000   0.46390000
  124 1     3      0.00000      5.65458      2.92011     13.69698   #   C50   0.49700000   0.16800000   0.42750000
  125 1     3      0.00000      5.42700      1.92826     12.76783   #   C51   0.47110000   0.13275000   0.39850000
  126 1     3      0.00000      3.59735      1.34419     14.01418   #   C52   0.39890000   0.12250000   0.43740000
  127 1     3      0.00000      4.35497      1.10898     12.93348   #   C53   0.41998500   0.10910000   0.40367000
  128 1     3      0.00000      4.60552     -0.27504     10.90088   #   C54   0.40081500   0.05560000   0.34023000
  129 1     2      0.00000      2.69802     -1.82800     10.47731   #   C55   0.29865500   0.00645000   0.32701000
  130 1     2      0.00000      1.58506     -0.90007      9.95923   #   C56   0.23482000   0.03130000   0.31084000
  131 1     2      0.00000      4.41188     -0.81223      7.81032   #   C57   0.34288500   0.02135000   0.24377000
  132 1     2      0.00000      4.68937     -1.73967      8.99163   #   C58   0.37522000   0.00040000   0.28064000
  133 1     3      0.00000     -0.72471     -1.87800     10.20465   #   C59   0.12295000   0.00335000   0.31850000
  134 1     3      0.00000     -2.97958     -2.14973     12.11903   #   C60   0.03987500   0.00640000   0.37825000
  135 1     3      0.00000     -1.75383     -1.60046     12.41668   #   C61   0.10592000   0.02465000   0.38754000
  136 1     3      0.00000     -1.47235     -1.31183     13.76106   #   C62   0.14100000   0.04120000   0.42950000
  137 1     3      0.00000     -2.41862     -1.62900     14.69662   #   C63   0.10820000   0.03715000   0.45870000
  138 1     3      0.00000     -3.86396     -2.39624     13.16160   #   C64   0.01184500   0.00510000   0.41079000
  139 1     1      0.00000      2.31635     15.86431      1.54496   #   Br1   0.14014000   0.48579500   0.04822000
  140 1     1      0.00000     -2.67455      5.96980     14.47491   #   Br2   0.09192000   0.26420500   0.45178000
  141 1     1      0.00000      2.67444     -2.34930     14.47491   #   Br3   0.35986000   0.01420500   0.45178000
  142 1     1      0.00000      7.66534      7.54521      1.54496   #   Br4   0.40808000   0.23579500   0.04822000
  143 1     8      0.00000      5.08662     11.51969     14.71617   #    N1   0.48445500   0.43240000   0.45931000
  144 1     7      0.00000      5.93907      6.99983     10.23189   #    N2   0.45717500   0.27030000   0.31935000
  145 1     8      0.00000      5.98997      8.38981     12.08026   #    N3   0.48857000   0.32290000   0.37704000
  146 1     8      0.00000      3.60634      6.15980     14.42973   #    N4   0.40583500   0.26965000   0.45037000
  147 1     7      0.00000     -0.41627      6.68083      9.49561   #    N5   0.12733500   0.25640000   0.29637000
  148 1     8      0.00000      0.77753      7.00417     11.46414   #    N6   0.21785500   0.27765000   0.35781000
  149 1     8      0.00000      0.09582     10.31442      1.30370   #    N7   0.02514500   0.31760000   0.04069000
  150 1     7      0.00000      0.94824     14.83428      5.78798   #    N8   0.13782500   0.47970000   0.18065000
  151 1     8      0.00000      0.99915     13.44430      3.93961   #    N9   0.11153000   0.42710000   0.12296000
  152 1     8      0.00000      8.59723     15.67431      1.59013   #   N10   0.45546500   0.48035000   0.04963000
  153 1     7      0.00000      4.57459     15.15328      6.52425   #   N11   0.33096500   0.49360000   0.20363000
  154 1     8      0.00000      5.76841     14.82993      4.55573   #   N12   0.36004500   0.47235000   0.14219000
  155 1     8      0.00000     -0.09583      1.99532      1.30370   #   N13   0.01554500   0.06760000   0.04069000
  156 1     7      0.00000     -0.94828      6.51518      5.78798   #   N14   0.04282500   0.22970000   0.18065000
  157 1     8      0.00000     -0.99918      5.12520      3.93961   #   N15   0.01143000   0.17710000   0.12296000
  158 1     8      0.00000      1.38446      7.35521      1.59013   #   N16   0.09416500   0.23035000   0.04963000
  159 1     7      0.00000      5.40706      6.83418      6.52425   #   N17   0.37266500   0.24360000   0.20363000
  160 1     8      0.00000      4.21326      6.51083      4.55573   #   N18   0.28214500   0.22235000   0.14219000
  161 1     8      0.00000      4.89497      3.20059     14.71617   #   N19   0.47485500   0.18240000   0.45931000
  162 1     7      0.00000      4.04255     -1.31927     10.23189   #   N20   0.36217500   0.02030000   0.31935000
  163 1     8      0.00000      3.99164      0.07071     12.08026   #   N21   0.38847000   0.07290000   0.37704000
  164 1     8      0.00000     -3.60644     -2.15930     14.42973   #   N22   0.04453500   0.01965000   0.45037000
  165 1     7      0.00000      0.41620     -1.63827      9.49561   #   N23   0.16903500   0.00640000   0.29637000
  166 1     8      0.00000     -0.77762     -1.31493     11.46414   #   N24   0.13995500   0.02765000   0.35781000
  167 1     9      0.00000      4.39191      8.62865     10.48821   #    O1   0.38367500   0.32075000   0.32735000
  168 1     9      0.00000      1.62299      5.75005      9.76379   #    O2   0.23367000   0.23000000   0.30474000
  169 1     9      0.00000     -0.59892     13.20546      5.53166   #    O3   0.05632500   0.42925000   0.17265000
  170 1     9      0.00000      6.61385     -0.55414      6.25608   #    O4   0.42893000   0.02000000   0.19526000
  171 1     9      0.00000      0.59888      4.88636      5.53166   #    O5   0.11632500   0.17925000   0.17265000
  172 1     9      0.00000      3.36780      7.76496      6.25608   #    O6   0.26633000   0.27000000   0.19526000
  173 1     9      0.00000      5.58971      0.30955     10.48821   #    O7   0.44367500   0.07075000   0.32735000
  174 1     9      0.00000     -1.62306     14.06915      9.76379   #    O8   0.07107000   0.48000000   0.30474000
  175 1     5      0.00000     -4.99091     -3.12319     16.01986   #   Cd1   0.00000000   0.00000000   0.50000000
  176 1     5      0.00000     -4.99091      5.19591     16.01986   #   Cd2   0.00000000   0.25000000   0.50000000
  177 1     6      0.00000     -8.33583      7.69507     31.62001   #    H1   0.07590000   0.41650000   0.98690000
  178 1     6      0.00000     -1.42949      8.63203     29.60471   #    H2   0.39040000   0.43285000   0.92400000
  179 1     6      0.00000     -1.00526      7.01868     28.05719   #    H3   0.38750000   0.37530000   0.87570000
  180 1     6      0.00000     -7.85371      5.99662     30.21026   #    H4   0.07805000   0.35720000   0.94290000
  181 1     6      0.00000     -7.59916      2.50101     26.07073   #    H5   0.02620000   0.22790000   0.81370000
  182 1     6      0.00000     -7.57122      3.24007     27.45164   #    H6   0.04915000   0.25820000   0.85680000
  183 1     6      0.00000     -6.92340      4.83220     25.25051   #    H7   0.04725000   0.29315000   0.78810000
  184 1     6      0.00000     -6.30853      4.89948     26.68909   #    H8   0.10050000   0.30360000   0.83300000
  185 1     6      0.00000      1.48519      4.72310     23.89843   #    H9   0.44735000   0.28195000   0.74590000
  186 1     6      0.00000     -0.02604      5.14073     23.87280   #   H10   0.37125000   0.29435000   0.74510000
  187 1     6      0.00000     -0.65689      3.41278     25.15760   #   H11   0.35970000   0.24995000   0.78520000
  188 1     6      0.00000      0.60580      2.56348     24.78593   #   H12   0.41715000   0.22225000   0.77360000
  189 1     6      0.00000     -1.78084      2.84495     27.25940   #   H13   0.33620000   0.24520000   0.85080000
  190 1     6      0.00000     -4.32318      4.28022     30.02763   #   H14   0.25205000   0.30455000   0.93720000
  191 1     6      0.00000     -2.77802      3.73434     31.60719   #   H15   0.35410000   0.29740000   0.98650000
  192 1     6      0.00000     -0.29556      2.44214     28.96712   #   H16   0.43725000   0.24310000   0.90410000
  193 1     6      0.00000     -8.30488      4.79305     28.33594   #   H17   0.02620000   0.31005000   0.88440000
  194 1     6      0.00000     -4.82526      4.44711     27.69514   #   H18   0.19050000   0.29590000   0.86440000
  195 1     6      0.00000     -3.34493      7.89266     16.43959   #   H19   0.08900000   0.33350000   0.51310000
  196 1     6      0.00000      3.56140      6.95569     18.45488   #   H20   0.46640000   0.31715000   0.57600000
  197 1     6      0.00000     -5.99608      8.56905     20.00240   #   H21   0.01180000   0.37470000   0.62430000
  198 1     6      0.00000     -2.86282      9.59111     17.84933   #   H22   0.13515000   0.39280000   0.55710000
  199 1     6      0.00000     -2.60830     -3.55148     21.98887   #   H23   0.21250000   0.02210000   0.68630000
  200 1     6      0.00000     -2.58034     12.34766     20.60795   #   H24   0.19235000   0.49180000   0.64320000
  201 1     6      0.00000     -1.93254     10.75552     22.80908   #   H25   0.25915000   0.45685000   0.71190000
  202 1     6      0.00000     -1.31766     10.68825     21.37050   #   H26   0.26750000   0.44640000   0.66700000
  203 1     6      0.00000     -3.50566     10.86462     24.16116   #   H27   0.20145000   0.46805000   0.75410000
  204 1     6      0.00000     -5.01689     10.44700     24.18679   #   H28   0.12615000   0.45565000   0.75490000
  205 1     6      0.00000     -5.64773     -4.46325     22.90200   #   H29   0.07450000   0.00005000   0.71480000
  206 1     6      0.00000     -4.38505     -3.61395     23.27366   #   H30   0.14355000   0.02775000   0.72640000
  207 1     6      0.00000      3.21004     -3.89542     20.80019   #   H31   0.48540000   0.00480000   0.64920000
  208 1     6      0.00000      0.66771     11.30751     18.03196   #   H32   0.31485000   0.44545000   0.56280000
  209 1     6      0.00000      2.21288     11.85338     16.45240   #   H33   0.36760000   0.45260000   0.51350000
  210 1     6      0.00000     -5.28638     -3.49261     19.09247   #   H34   0.03315000   0.00690000   0.59590000
  211 1     6      0.00000     -3.31400     10.79468     19.72366   #   H35   0.14180000   0.43995000   0.61560000
  212 1     6      0.00000      0.16562     11.14061     20.36445   #   H36   0.32610000   0.45410000   0.63560000
  213 1     6      0.00000      3.34481     -0.42644     16.43959   #   H37   0.42410000   0.08350000   0.51310000
  214 1     6      0.00000     -3.56154     -1.36341     18.45488   #   H38   0.10960000   0.06715000   0.57600000
  215 1     6      0.00000     -3.98577      0.24995     20.00240   #   H39   0.11250000   0.12470000   0.62430000
  216 1     6      0.00000      2.86269      1.27201     17.84933   #   H40   0.42195000   0.14280000   0.55710000
  217 1     6      0.00000      2.60814      4.76762     21.98887   #   H41   0.47380000   0.27210000   0.68630000