LAMMPS (29 Aug 2024 - Update 3)
  using 1 OpenMP thread(s) per MPI task
units           real
atom_style      full
boundary        p p p

bond_style      harmonic
angle_style     hybrid cosine/periodic fourier
dihedral_style  harmonic
improper_style  fourier

dielectric      1.0
pair_style      lj/cut 12.5
pair_modify     shift yes mix geometric
special_bonds   lj 0.0 0.0 1.0
box             tilt large

The 'box' command has been removed and will be ignored

read_data       data.lmp
Reading data file ...
  triclinic box = (0 0 0) to (19.9634 33.2764 32.039729) with tilt (0 -9.9818173 -6.2463827)
WARNING: Triclinic box skew is large. LAMMPS will run inefficiently. (src/src/domain.cpp:221)
  1 by 1 by 1 MPI processor grid
WARNING: Atom style in data file a, b, c, alpha, beta, gamma: 19.9634000000, 33.2764000000, 34.1350000000, 100.5440000000, 107.0030000000, 90.0000000000 $$$atoms$$$ differs from currently defined atom style full (src/src/read_data.cpp:706)
  reading atoms ...
  1392 atoms
  scanning bonds ...
  6 = max bonds/atom
  scanning angles ...
  15 = max angles/atom
  scanning dihedrals ...
  15 = max dihedrals/atom
  scanning impropers ...
  4 = max impropers/atom
  triclinic box = (0 0 0) to (19.9634 33.2764 32.039729) with tilt (0 -9.9818173 -6.2463827)
WARNING: Triclinic box skew is large. LAMMPS will run inefficiently. (src/src/domain.cpp:221)
  1 by 1 by 1 MPI processor grid
  reading bonds ...
  1504 bonds
  reading angles ...
  2736 angles
  reading dihedrals ...
  3648 dihedrals
  reading impropers ...
  512 impropers
Finding 1-2 1-3 1-4 neighbors ...
  special bond factors lj:    0        0        1       
  special bond factors coul:  0        0        0       
     6 = max # of 1-2 neighbors
     9 = max # of 1-3 neighbors
    24 = max # of 1-4 neighbors
    30 = max # of special neighbors
  special bonds CPU = 0.001 seconds
  read_data CPU = 0.297 seconds




# simulation
fix                 fxnpt all npt temp 300.0 300.0 $(200.0*dt) tri 1.0 1.0 $(800.0*dt)
fix                 fxnpt all npt temp 300.0 300.0 200 tri 1.0 1.0 $(800.0*dt)
fix                 fxnpt all npt temp 300.0 300.0 200 tri 1.0 1.0 800
variable            Nevery equal 2500
thermo              ${Nevery}
thermo              2500
thermo_style        custom step cpu dt time temp press pe ke etotal density xlo ylo zlo cella cellb cellc cellalpha cellbeta cellgamma
thermo_modify       flush yes
minimize            1.0e-10 1.0e-10 10000 100000
Generated 36 of 36 mixed pair_coeff terms from geometric mixing rule
Neighbor list info ...
  update: every = 1 steps, delay = 0 steps, check = yes
  max neighbors/atom: 2000, page size: 100000
  master list distance cutoff = 14.5
  ghost atom cutoff = 14.5
  binsize = 7.25, bins = 5 6 5
  1 neighbor lists, perpetual/occasional/extra = 1 0 0
  (1) pair lj/cut, perpetual
      attributes: half, newton on
      pair build: half/bin/newton/tri
      stencil: half/bin/3d/tri
      bin: standard
WARNING: Inconsistent image flags (src/src/domain.cpp:1051)
Per MPI rank memory allocation (min/avg/max) = 22.22 | 22.22 | 22.22 Mbytes
   Step          CPU             Dt            Time           Temp          Press          PotEng         KinEng         TotEng        Density          Xlo            Ylo            Zlo           Cella          Cellb          Cellc        CellAlpha       CellBeta      CellGamma   
         0   0              1              0              0              134835.93      11486.875      0              11486.875      1.1545586      0              0              0              19.9634        33.2764        34.135         100.544        107.003        90           
