Created by Ryther's code on 2025-07-29 22:46:56.575838, modified by xyan11@uic.edu. 

    440 atoms
    520 bonds
    1032 angles
    944 dihedrals
    192 impropers

    6 atom types
    9 bond types
    18 angle types
    5 dihedral types
    2 improper types

0.00000000 22.84337115 xlo xhi
0.00000000 30.98067758 ylo yhi
0.00000000 20.45084726 zlo zhi
0.3158177 -0.00725235 2.51211675 xy xz yz 

Masses 

    1    12.0107  #   C
    2    1.00794  #   H
    3    14.0067  #   N
    4    15.9994  #   O
    5    15.9994  #   O
    6      65.38  #  Zn

Pair Coeffs

    1       0.10500      3.43085  #  C_R C_R
    2       0.04400      2.57113  #  H_ H_
    3       0.06900      3.26069  #  N_2 N_2
    4       0.06000      3.11815  #  O_2_M O_2_M
    5       0.06000      3.11815  #  O_R O_R
    6       0.12400      2.46155  #  Zn4+2 Zn4+2

Bond Coeffs

    1     104.44141      2.12294  #  O_2_M Zn4+2 bond order=0.5
    2     103.61325      2.20128  #  N_2 Zn4+2 bond order=0.5
    3      48.90184      1.84943  #  H_ Zn4+2 bond order=0.5
    4     357.44038      1.08142  #  C_R H_ bond order=1.0
    5     931.53598      1.20133  #  C_R N_2 bond order=3.0
    6     462.65505      1.37926  #  C_R C_R bond order=1.5
    7     646.62465      1.31194  #  C_R O_R bond order=1.5
    8     391.66951      1.45800  #  C_R C_R bond order=1.0
    9     714.55744      1.26901  #  C_R O_2_M bond order=1.5

Angle Coeffs

    1  cosine/periodic        101.82219            1            4  #  N_2 Zn4+2 O_2_M
    2  cosine/periodic         97.36576            1            4  #  O_2_M Zn4+2 O_2_M
    3  cosine/periodic         36.20045            1            4  #  H_ Zn4+2 O_2_M
    4  cosine/periodic         37.39156            1            4  #  H_ Zn4+2 N_2
    5  cosine/periodic         14.11273            1            4  #  H_ Zn4+2 H_
    6  cosine/periodic         11.23300            1            1  #  Zn4+2 H_ Zn4+2
    7  cosine/periodic        179.74893           -1            3  #  C_R C_R N_2
    8  cosine/periodic        111.29751           -1            3  #  C_R C_R C_R
    9  cosine/periodic         57.28902           -1            3  #  C_R C_R H_
    10 cosine/periodic        144.05325           -1            3  #  C_R C_R O_R
    11 cosine/periodic         75.41278           -1            3  #  H_ C_R O_R
    12 cosine/periodic         51.62857           -1            3  #  C_R C_R H_
    13 cosine/periodic        102.18328           -1            3  #  C_R C_R C_R
    14 cosine/periodic        137.71425           -1            3  #  C_R C_R O_2_M
    15 cosine/periodic        206.77843           -1            3  #  O_2_M C_R O_2_M
    16 fourier                 84.89470      0.36401      0.41847      0.28800  #  C_R N_2 Zn4+2
    17 fourier                322.57640      0.35263      0.39441      0.28421  #  C_R O_R C_R
    18 cosine/periodic         37.72922           -1            3  #  C_R O_2_M Zn4+2

Dihedral Coeffs

    1      27.96100           -1            2  #  X C_R N_2 X bond order=3.0
    2       6.73711           -1            2  #  X C_R C_R X bond order=1.5
    3       6.73711           -1            2  #  X C_R O_R X bond order=1.5
    4       1.25000           -1            2  #  X C_R C_R X bond order=1.0
    5       6.73711           -1            2  #  X C_R O_2_M X bond order=1.5

Improper Coeffs

    1       2.00000      1.00000     -1.00000      0.00000            1  #  C_R X X X O_2 present=False
    2      16.66667      1.00000     -1.00000      0.00000            1  #  C_R X X X O_2 present=True

Atoms # a, b, c, alpha, beta, gamma: 22.8433711496, 30.9822872640, 20.6045610682, 82.9976242796, 90.0201668494, 89.4159458060 $$$atoms$$$

    1 1     6      0.00000      3.16823     15.33779      5.15732   #   Zn1   0.13221159   0.47462765   0.25218117
    2 1     6      0.00000      6.09862     15.33783      5.15831   #   Zn2   0.26049371   0.47462471   0.25222977
    3 1     2      0.00000      1.01593     15.61201      8.92280   #    H1   0.03813429   0.46854890   0.43630465
    4 1     2      0.00000     10.19064     14.46001      0.12690   #    H2   0.43966546   0.46623981   0.00620518
    5 1     2      0.00000      4.68671     14.80085      5.62266   #    H3   0.19895784   0.45545087   0.27493532
    6 1     2      0.00000      4.82471     11.21703      6.37893   #    H4   0.20665139   0.33677312   0.31191501
    7 1     2      0.00000      4.19568     10.63798      3.44030   #    H5   0.17916623   0.32973412   0.16822300
    8 1     2      0.00000      5.70828      9.20264      6.64746   #    H6   0.24624859   0.27068759   0.32504563
    9 1     2      0.00000      5.75132      6.83372      7.19224   #    H7   0.24922827   0.19206334   0.35168420
   10 1     2      0.00000      3.40079      5.98265      3.66818   #    H8   0.14646251   0.17856504   0.17936555
   11 1     2      0.00000      3.35775      8.35157      3.12340   #    H9   0.14348291   0.25718928   0.15272698
   12 1     2      0.00000      4.91340      4.54731      6.87533   #   H10   0.21354509   0.11951848   0.33618813
   13 1     2      0.00000      4.28435      3.96826      3.93671   #   H11   0.18605923   0.11247940   0.19249627
   14 1     2      0.00000      4.58025     15.87478      4.69298   #   H12   0.19375256   0.49380171   0.22947610
   15 1     2      0.00000      3.29726      1.79855     10.10759   #   H13   0.14425027   0.01797794   0.49423844
   16 1     2      0.00000      5.93497     14.24068      8.33126   #   H14   0.25404270   0.42663043   0.40737947
   17 1     2      0.00000      6.74167     12.34106      0.33682   #   H15   0.28964219   0.39701165   0.01646974
   18 1     2      0.00000      5.93710     13.50537      2.34516   #   H16   0.25404276   0.42663043   0.11467322
   19 1     1      0.00000      0.47275     15.40493      6.07888   #    C1   0.01424832   0.47314081   0.29724358
   20 1     1      0.00000     11.02924     15.48844      7.22561   #    C2   0.47641657   0.47128938   0.35331590
   21 1     1      0.00000     11.42536     15.58422      8.54116   #    C3   0.49380718   0.46916511   0.41764318
   22 1     1      0.00000     10.25489     15.63768      9.27557   #    C4   0.44259582   0.46797883   0.45355423
   23 1     1      0.00000      9.65053     15.48905      7.23415   #    C5   0.41606207   0.47127538   0.35373334
   24 1     1      0.00000      8.79029     15.40531      6.08414   #    C6   0.37836046   0.47313212   0.29750080
   25 1     1      0.00000      4.63341     11.41382      5.33351   #    C7   0.19811549   0.34727012   0.26079662
   26 1     1      0.00000      4.44626     10.40592      4.46925   #    C8   0.19031198   0.31816379   0.21853614
   27 1     1      0.00000      4.50647      8.97220      4.84789   #    C9   0.19361396   0.27038460   0.23705071
   28 1     1      0.00000      5.18458      8.51820      5.99510   #   C10   0.22358251   0.25118176   0.29314664
   29 1     1      0.00000      5.22187      7.15527      6.30329   #   C11   0.22584479   0.20596681   0.30821636
   30 1     1      0.00000      4.60260      6.21309      5.46775   #   C12   0.19909718   0.17886800   0.26736047
   31 1     1      0.00000      3.92449      6.66709      4.32054   #   C13   0.16912868   0.19807084   0.21126454
   32 1     1      0.00000      3.88720      8.03002      4.01235   #   C14   0.16686631   0.24328579   0.19619482
   33 1     1      0.00000      4.66281      4.77937      5.84639   #   C15   0.20239920   0.13108881   0.28587504
   34 1     1      0.00000      4.47566      3.77147      4.98213   #   C16   0.19459539   0.10198244   0.24361461
   35 1     1      0.00000      4.63487     14.85892      1.25919   #   C17   0.19635545   0.47462628   0.06157154
   36 1     1      0.00000      4.17175     16.48306     10.20683   #   C18   0.17598619   0.49157354   0.49909104
   37 1     1      0.00000      4.63210     15.81671      9.05645   #   C19   0.19635545   0.47462628   0.44283969
   38 1     1      0.00000      5.56216     14.77235      9.19783   #   C20   0.23754606   0.44035564   0.44975318
   39 1     1      0.00000      6.02538     13.14657      0.23762   #   C21   0.25791930   0.42340511   0.01161906
   40 1     1      0.00000      5.56494     13.81147      1.37541   #   C22   0.23754613   0.44035564   0.06725464
   41 1     1      0.00000      4.63260     15.58243      7.58498   #   C23   0.19637802   0.47289854   0.37088839
   42 1     1      0.00000      4.63428     15.09321      2.73065   #   C24   0.19632867   0.47635436   0.13352258
   43 1     1      0.00000      4.47558      2.28154      4.99564   #   C25   0.19525777   0.05383639   0.24427547
   44 1     1      0.00000      4.63339     12.90375      5.31999   #   C26   0.19744889   0.39541599   0.26013557
   45 1     3      0.00000      1.16831     15.33777      5.15653   #    N1   0.04466270   0.47462997   0.25214275
   46 1     3      0.00000      8.09853     15.33795      5.15898   #    N2   0.34804254   0.47462593   0.25226263
   47 1     5      0.00000      9.21638     15.57898      8.46943   #    O1   0.39710343   0.46928045   0.41413597
   48 1     4      0.00000      5.74615     15.17179      3.22486   #    O2   0.24500211   0.47693132   0.15768857
   49 1     4      0.00000      5.74483     15.50386      7.09152   #    O3   0.24506775   0.47231903   0.34675912
   50 1     4      0.00000      5.58762      1.78153      5.00061   #    O4   0.24416248   0.03767737   0.24451826
   51 1     4      0.00000      5.74545     13.40378      5.31578   #    O5   0.24590734   0.41157298   0.25992938
   52 1     4      0.00000      3.36349      1.78150      4.99986   #    O6   0.14679792   0.03767937   0.24448156
   53 1     4      0.00000      3.52069     15.50385      7.09077   #    O7   0.14770318   0.47232156   0.34672235
   54 1     4      0.00000      3.52202     15.17177      3.22410   #    O8   0.14763754   0.47693383   0.15765103
   55 1     4      0.00000      3.52132     13.40377      5.31501   #    O9   0.14854277   0.41157549   0.25989189
   56 1     6      0.00000      3.16460     16.59385     15.38274   #   Zn1   0.13221159   0.47462765   0.75218117
   57 1     6      0.00000      6.09499     16.59388     15.38374   #   Zn2   0.26049371   0.47462471   0.75222977
   58 1     2      0.00000      1.01230     16.86807     19.14822   #    H1   0.03813429   0.46854890   0.93630465
   59 1     2      0.00000     10.18702     15.71607     10.35232   #    H2   0.43966546   0.46623981   0.50620518
   60 1     2      0.00000      4.68309     16.05690     15.84808   #    H3   0.19895784   0.45545087   0.77493532
   61 1     2      0.00000      4.82108     12.47308     16.60435   #    H4   0.20665139   0.33677312   0.81191501
   62 1     2      0.00000      4.19205     11.89404     13.66573   #    H5   0.17916623   0.32973412   0.66822300
   63 1     2      0.00000      5.70465     10.45870     16.87288   #    H6   0.24624859   0.27068759   0.82504563
   64 1     2      0.00000      5.74769      8.08978     17.41766   #    H7   0.24922827   0.19206334   0.85168420
   65 1     2      0.00000      3.39716      7.23871     13.89360   #    H8   0.14646251   0.17856504   0.67936555
   66 1     2      0.00000      3.35412      9.60762     13.34882   #    H9   0.14348291   0.25718928   0.65272698
   67 1     2      0.00000      4.90977      5.80337     17.10076   #   H10   0.21354509   0.11951848   0.83618813
   68 1     2      0.00000      4.28072      5.22432     14.16214   #   H11   0.18605923   0.11247940   0.69249627
   69 1     2      0.00000      4.57662     17.13084     14.91840   #   H12   0.19375256   0.49380171   0.72947610
   70 1     2      0.00000      3.29363      3.05461     20.33302   #   H13   0.14425027   0.01797794   0.99423844
   71 1     2      0.00000      5.93135     15.49674     18.55668   #   H14   0.25404270   0.42663043   0.90737947
   72 1     2      0.00000      6.73804     13.59712     10.56224   #   H15   0.28964219   0.39701165   0.51646974
   73 1     2      0.00000      5.93347     14.76143     12.57059   #   H16   0.25404276   0.42663043   0.61467322
   74 1     1      0.00000      0.46912     16.66099     16.30431   #    C1   0.01424832   0.47314081   0.79724358
   75 1     1      0.00000     11.02561     16.74449     17.45103   #    C2   0.47641657   0.47128938   0.85331590
   76 1     1      0.00000     11.42174     16.84028     18.76658   #    C3   0.49380718   0.46916511   0.91764318
   77 1     1      0.00000     10.25126     16.89374     19.50099   #    C4   0.44259582   0.46797883   0.95355423
   78 1     1      0.00000      9.64691     16.74511     17.45957   #    C5   0.41606207   0.47127538   0.85373334
   79 1     1      0.00000      8.78667     16.66137     16.30957   #    C6   0.37836046   0.47313212   0.79750080
   80 1     1      0.00000      4.62978     12.66987     15.55894   #    C7   0.19811549   0.34727012   0.76079662
   81 1     1      0.00000      4.44264     11.66198     14.69467   #    C8   0.19031198   0.31816379   0.71853614
   82 1     1      0.00000      4.50284     10.22826     15.07331   #    C9   0.19361396   0.27038460   0.73705071
   83 1     1      0.00000      5.18095      9.77426     16.22052   #   C10   0.22358251   0.25118176   0.79314664
   84 1     1      0.00000      5.21824      8.41133     16.52871   #   C11   0.22584479   0.20596681   0.80821636
   85 1     1      0.00000      4.59898      7.46915     15.69317   #   C12   0.19909718   0.17886800   0.76736047
   86 1     1      0.00000      3.92087      7.92315     14.54596   #   C13   0.16912868   0.19807084   0.71126454
   87 1     1      0.00000      3.88357      9.28608     14.23777   #   C14   0.16686631   0.24328579   0.69619482
   88 1     1      0.00000      4.65918      6.03543     16.07181   #   C15   0.20239920   0.13108881   0.78587504
   89 1     1      0.00000      4.47203      5.02753     15.20755   #   C16   0.19459539   0.10198244   0.74361461
   90 1     1      0.00000      4.63124     16.11498     11.48461   #   C17   0.19635545   0.47462628   0.56157154
   91 1     1      0.00000      4.16812     17.73911     20.43226   #   C18   0.17598619   0.49157354   0.99909104
   92 1     1      0.00000      4.62848     17.07277     19.28187   #   C19   0.19635545   0.47462628   0.94283969
   93 1     1      0.00000      5.55854     16.02841     19.42326   #   C20   0.23754606   0.44035564   0.94975318
   94 1     1      0.00000      6.02175     14.40262     10.46304   #   C21   0.25791930   0.42340511   0.51161906
   95 1     1      0.00000      5.56131     15.06753     11.60084   #   C22   0.23754613   0.44035564   0.56725464
   96 1     1      0.00000      4.62897     16.83849     17.81041   #   C23   0.19637802   0.47289854   0.87088839
   97 1     1      0.00000      4.63066     16.34926     12.95607   #   C24   0.19632867   0.47635436   0.63352258
   98 1     1      0.00000      4.47195      3.53759     15.22106   #   C25   0.19525777   0.05383639   0.74427547
   99 1     1      0.00000      4.62976     14.15980     15.54542   #   C26   0.19744889   0.39541599   0.76013557
  100 1     3      0.00000      1.16469     16.59383     15.38196   #    N1   0.04466270   0.47462997   0.75214275
  101 1     3      0.00000      8.09490     16.59400     15.38441   #    N2   0.34804254   0.47462593   0.75226263
  102 1     5      0.00000      9.21276     16.83504     18.69486   #    O1   0.39710343   0.46928045   0.91413597
  103 1     4      0.00000      5.74253     16.42785     13.45029   #    O2   0.24500211   0.47693132   0.65768857
  104 1     4      0.00000      5.74120     16.75992     17.31694   #    O3   0.24506775   0.47231903   0.84675912
  105 1     4      0.00000      5.58399      3.03759     15.22603   #    O4   0.24416248   0.03767737   0.74451826
  106 1     4      0.00000      5.74182     14.65984     15.54120   #    O5   0.24590734   0.41157298   0.75992938
  107 1     4      0.00000      3.35986      3.03756     15.22528   #    O6   0.14679792   0.03767937   0.74448156
  108 1     4      0.00000      3.51707     16.75991     17.31619   #    O7   0.14770318   0.47232156   0.84672235
  109 1     4      0.00000      3.51839     16.42783     13.44952   #    O8   0.14763754   0.47693383   0.65765103
  110 1     4      0.00000      3.51769     14.65982     15.54043   #    O9   0.14854277   0.41157549   0.75989189
  111 1     6      0.00000      3.32613     30.82813      5.15732   #   Zn1   0.13221159   0.97462765   0.25218117
  112 1     6      0.00000      6.25653     30.82816      5.15831   #   Zn2   0.26049371   0.97462471   0.25222977
  113 1     2      0.00000      1.17384     31.10235      8.92280   #    H1   0.03813429   0.96854890   0.43630465
  114 1     2      0.00000     10.34855     29.95035      0.12690   #    H2   0.43966546   0.96623981   0.00620518
  115 1     2      0.00000      4.84462     30.29119      5.62266   #    H3   0.19895784   0.95545087   0.27493532
  116 1     2      0.00000      4.98262     26.70737      6.37893   #    H4   0.20665139   0.83677312   0.31191501
  117 1     2      0.00000      4.35359     26.12832      3.44030   #    H5   0.17916623   0.82973412   0.16822300
  118 1     2      0.00000      5.86619     24.69298      6.64746   #    H6   0.24624859   0.77068759   0.32504563
  119 1     2      0.00000      5.90923     22.32406      7.19224   #    H7   0.24922827   0.69206334   0.35168420
  120 1     2      0.00000      3.55870     21.47299      3.66818   #    H8   0.14646251   0.67856504   0.17936555
  121 1     2      0.00000      3.51566     23.84191      3.12340   #    H9   0.14348291   0.75718928   0.15272698
  122 1     2      0.00000      5.07131     20.03765      6.87533   #   H10   0.21354509   0.61951848   0.33618813
  123 1     2      0.00000      4.44226     19.45860      3.93671   #   H11   0.18605923   0.61247940   0.19249627
  124 1     2      0.00000      4.73816     31.36512      4.69298   #   H12   0.19375256   0.99380171   0.22947610
  125 1     2      0.00000      3.45516     17.28889     10.10759   #   H13   0.14425027   0.51797794   0.49423844
  126 1     2      0.00000      6.09288     29.73102      8.33126   #   H14   0.25404270   0.92663043   0.40737947
  127 1     2      0.00000      6.89958     27.83140      0.33682   #   H15   0.28964219   0.89701165   0.01646974
  128 1     2      0.00000      6.09501     28.99571      2.34516   #   H16   0.25404276   0.92663043   0.11467322
  129 1     1      0.00000      0.63066     30.89527      6.07888   #    C1   0.01424832   0.97314081   0.29724358
  130 1     1      0.00000     11.18715     30.97877      7.22561   #    C2   0.47641657   0.97128938   0.35331590
  131 1     1      0.00000     11.58327     31.07456      8.54116   #    C3   0.49380718   0.96916511   0.41764318
  132 1     1      0.00000     10.41280     31.12802      9.27557   #    C4   0.44259582   0.96797883   0.45355423
  133 1     1      0.00000      9.80844     30.97939      7.23415   #    C5   0.41606207   0.97127538   0.35373334
  134 1     1      0.00000      8.94820     30.89565      6.08414   #    C6   0.37836046   0.97313212   0.29750080
  135 1     1      0.00000      4.79132     26.90415      5.33351   #    C7   0.19811549   0.84727012   0.26079662
  136 1     1      0.00000      4.60417     25.89626      4.46925   #    C8   0.19031198   0.81816379   0.21853614
  137 1     1      0.00000      4.66438     24.46254      4.84789   #    C9   0.19361396   0.77038460   0.23705071
  138 1     1      0.00000      5.34249     24.00854      5.99510   #   C10   0.22358251   0.75118176   0.29314664
  139 1     1      0.00000      5.37978     22.64561      6.30329   #   C11   0.22584479   0.70596681   0.30821636
  140 1     1      0.00000      4.76051     21.70343      5.46775   #   C12   0.19909718   0.67886800   0.26736047
  141 1     1      0.00000      4.08240     22.15743      4.32054   #   C13   0.16912868   0.69807084   0.21126454
  142 1     1      0.00000      4.04511     23.52036      4.01235   #   C14   0.16686631   0.74328579   0.19619482
  143 1     1      0.00000      4.82072     20.26971      5.84639   #   C15   0.20239920   0.63108881   0.28587504
  144 1     1      0.00000      4.63356     19.26181      4.98213   #   C16   0.19459539   0.60198244   0.24361461
  145 1     1      0.00000      4.79278     30.34926      1.25919   #   C17   0.19635545   0.97462628   0.06157154
  146 1     1      0.00000      4.32965     31.97340     10.20683   #   C18   0.17598619   0.99157354   0.49909104
  147 1     1      0.00000      4.79001     31.30705      9.05645   #   C19   0.19635545   0.97462628   0.44283969
  148 1     1      0.00000      5.72007     30.26269      9.19783   #   C20   0.23754606   0.94035564   0.44975318
  149 1     1      0.00000      6.18329     28.63690      0.23762   #   C21   0.25791930   0.92340511   0.01161906
  150 1     1      0.00000      5.72285     29.30181      1.37541   #   C22   0.23754613   0.94035564   0.06725464
  151 1     1      0.00000      4.79050     31.07277      7.58498   #   C23   0.19637802   0.97289854   0.37088839
  152 1     1      0.00000      4.79219     30.58354      2.73065   #   C24   0.19632867   0.97635436   0.13352258
  153 1     1      0.00000      4.63349     17.77188      4.99564   #   C25   0.19525777   0.55383639   0.24427547
  154 1     1      0.00000      4.79130     28.39408      5.31999   #   C26   0.19744889   0.89541599   0.26013557
  155 1     3      0.00000      1.32622     30.82811      5.15653   #    N1   0.04466270   0.97462997   0.25214275
  156 1     3      0.00000      8.25644     30.82828      5.15898   #    N2   0.34804254   0.97462593   0.25226263
  157 1     5      0.00000      9.37429     31.06932      8.46943   #    O1   0.39710343   0.96928045   0.41413597
  158 1     4      0.00000      5.90406     30.66213      3.22486   #    O2   0.24500211   0.97693132   0.15768857
  159 1     4      0.00000      5.90273     30.99420      7.09152   #    O3   0.24506775   0.97231903   0.34675912
  160 1     4      0.00000      5.74553     17.27187      5.00061   #    O4   0.24416248   0.53767737   0.24451826
  161 1     4      0.00000      5.90336     28.89412      5.31578   #    O5   0.24590734   0.91157298   0.25992938
  162 1     4      0.00000      3.52139     17.27184      4.99986   #    O6   0.14679792   0.53767937   0.24448156
  163 1     4      0.00000      3.67860     30.99419      7.09077   #    O7   0.14770318   0.97232156   0.34672235
  164 1     4      0.00000      3.67993     30.66211      3.22410   #    O8   0.14763754   0.97693383   0.15765103
  165 1     4      0.00000      3.67922     28.89411      5.31501   #    O9   0.14854277   0.91157549   0.25989189
  166 1     6      0.00000      3.32251     32.08419     15.38274   #   Zn1   0.13221159   0.97462765   0.75218117
  167 1     6      0.00000      6.25290     32.08422     15.38374   #   Zn2   0.26049371   0.97462471   0.75222977
  168 1     2      0.00000      1.17021     32.35841     19.14822   #    H1   0.03813429   0.96854890   0.93630465
  169 1     2      0.00000     10.34493     31.20641     10.35232   #    H2   0.43966546   0.96623981   0.50620518
  170 1     2      0.00000      4.84100     31.54724     15.84808   #    H3   0.19895784   0.95545087   0.77493532
  171 1     2      0.00000      4.97899     27.96342     16.60435   #    H4   0.20665139   0.83677312   0.81191501
  172 1     2      0.00000      4.34996     27.38438     13.66573   #    H5   0.17916623   0.82973412   0.66822300
  173 1     2      0.00000      5.86256     25.94903     16.87288   #    H6   0.24624859   0.77068759   0.82504563
  174 1     2      0.00000      5.90560     23.58012     17.41766   #    H7   0.24922827   0.69206334   0.85168420
  175 1     2      0.00000      3.55507     22.72905     13.89360   #    H8   0.14646251   0.67856504   0.67936555
  176 1     2      0.00000      3.51203     25.09796     13.34882   #    H9   0.14348291   0.75718928   0.65272698
  177 1     2      0.00000      5.06768     21.29370     17.10076   #   H10   0.21354509   0.61951848   0.83618813
  178 1     2      0.00000      4.43863     20.71466     14.16214   #   H11   0.18605923   0.61247940   0.69249627
  179 1     2      0.00000      4.73453     32.62118     14.91840   #   H12   0.19375256   0.99380171   0.72947610
  180 1     2      0.00000      3.45154     18.54495     20.33302   #   H13   0.14425027   0.51797794   0.99423844
  181 1     2      0.00000      6.08926     30.98708     18.55668   #   H14   0.25404270   0.92663043   0.90737947
  182 1     2      0.00000      6.89595     29.08746     10.56224   #   H15   0.28964219   0.89701165   0.51646974
  183 1     2      0.00000      6.09138     30.25177     12.57059   #   H16   0.25404276   0.92663043   0.61467322
  184 1     1      0.00000      0.62703     32.15133     16.30431   #    C1   0.01424832   0.97314081   0.79724358
  185 1     1      0.00000     11.18352     32.23483     17.45103   #    C2   0.47641657   0.97128938   0.85331590
  186 1     1      0.00000     11.57965     32.33062     18.76658   #    C3   0.49380718   0.96916511   0.91764318
  187 1     1      0.00000     10.40917     32.38408     19.50099   #    C4   0.44259582   0.96797883   0.95355423
  188 1     1      0.00000      9.80481     32.23545     17.45957   #    C5   0.41606207   0.97127538   0.85373334
  189 1     1      0.00000      8.94458     32.15171     16.30957   #    C6   0.37836046   0.97313212   0.79750080
  190 1     1      0.00000      4.78769     28.16021     15.55894   #    C7   0.19811549   0.84727012   0.76079662
  191 1     1      0.00000      4.60055     27.15232     14.69467   #    C8   0.19031198   0.81816379   0.71853614
  192 1     1      0.00000      4.66075     25.71859     15.07331   #    C9   0.19361396   0.77038460   0.73705071
  193 1     1      0.00000      5.33886     25.26460     16.22052   #   C10   0.22358251   0.75118176   0.79314664
  194 1     1      0.00000      5.37615     23.90166     16.52871   #   C11   0.22584479   0.70596681   0.80821636
  195 1     1      0.00000      4.75688     22.95949     15.69317   #   C12   0.19909718   0.67886800   0.76736047
  196 1     1      0.00000      4.07877     23.41349     14.54596   #   C13   0.16912868   0.69807084   0.71126454
  197 1     1      0.00000      4.04148     24.77642     14.23777   #   C14   0.16686631   0.74328579   0.69619482
  198 1     1      0.00000      4.81709     21.52577     16.07181   #   C15   0.20239920   0.63108881   0.78587504
  199 1     1      0.00000      4.62994     20.51787     15.20755   #   C16   0.19459539   0.60198244   0.74361461
  200 1     1      0.00000      4.78915     31.60532     11.48461   #   C17   0.19635545   0.97462628   0.56157154
  201 1     1      0.00000      4.32603     33.22945     20.43226   #   C18   0.17598619   0.99157354   0.99909104
  202 1     1      0.00000      4.78639     32.56311     19.28187   #   C19   0.19635545   0.97462628   0.94283969
  203 1     1      0.00000      5.71645     31.51875     19.42326   #   C20   0.23754606   0.94035564   0.94975318
  204 1     1      0.00000      6.17966     29.89296     10.46304   #   C21   0.25791930   0.92340511   0.51161906
  205 1     1      0.00000      5.71922     30.55786     11.60084   #   C22   0.23754613   0.94035564   0.56725464
  206 1     1      0.00000      4.78688     32.32883     17.81041   #   C23   0.19637802   0.97289854   0.87088839
  207 1     1      0.00000      4.78856     31.83960     12.95607   #   C24   0.19632867   0.97635436   0.63352258
  208 1     1      0.00000      4.62986     19.02793     15.22106   #   C25   0.19525777   0.55383639   0.74427547
  209 1     1      0.00000      4.78767     29.65014     15.54542   #   C26   0.19744889   0.89541599   0.76013557
  210 1     3      0.00000      1.32260     32.08417     15.38196   #    N1   0.04466270   0.97462997   0.75214275
  211 1     3      0.00000      8.25281     32.08434     15.38441   #    N2   0.34804254   0.97462593   0.75226263
  212 1     5      0.00000      9.37067     32.32538     18.69486   #    O1   0.39710343   0.96928045   0.91413597
  213 1     4      0.00000      5.90044     31.91818     13.45029   #    O2   0.24500211   0.97693132   0.65768857
  214 1     4      0.00000      5.89911     32.25026     17.31694   #    O3   0.24506775   0.97231903   0.84675912
  215 1     4      0.00000      5.74190     18.52793     15.22603   #    O4   0.24416248   0.53767737   0.74451826
  216 1     4      0.00000      5.89973     30.15018     15.54120   #    O5   0.24590734   0.91157298   0.75992938
  217 1     4      0.00000      3.51777     18.52790     15.22528   #    O6   0.14679792   0.53767937   0.74448156
  218 1     4      0.00000      3.67497     32.25025     17.31619   #    O7   0.14770318   0.97232156   0.84672235
  219 1     4      0.00000      3.67630     31.91817     13.44952   #    O8   0.14763754   0.97693383   0.65765103
  220 1     4      0.00000      3.67560     30.15016     15.54043   #    O9   0.14854277   0.91157549   0.75989189
  221 1     6      0.00000     14.58991     15.33779      5.15732   #   Zn1   0.63221159   0.47462765   0.25218117
  222 1     6      0.00000     17.52031     15.33783      5.15831   #   Zn2   0.76049371   0.47462471   0.25222977
  223 1     2      0.00000     12.43761     15.61201      8.92280   #    H1   0.53813429   0.46854890   0.43630465
  224 1     2      0.00000     21.61233     14.46001      0.12690   #    H2   0.93966546   0.46623981   0.00620518
  225 1     2      0.00000     16.10840     14.80085      5.62266   #    H3   0.69895784   0.45545087   0.27493532
  226 1     2      0.00000     16.24640     11.21703      6.37893   #    H4   0.70665139   0.33677312   0.31191501
  227 1     2      0.00000     15.61736     10.63798      3.44030   #    H5   0.67916623   0.32973412   0.16822300
  228 1     2      0.00000     17.12996      9.20264      6.64746   #    H6   0.74624859   0.27068759   0.32504563