ITEM: TIMESTEP
0
ITEM: NUMBER OF ATOMS
440
ITEM: BOX BOUNDS xy xz yz pp pp pp
-7.2523500000000003e-03 2.3159188850000000e+01 3.1581769999999998e-01
0.0000000000000000e+00 3.3492794329999995e+01 -7.2523500000000003e-03
0.0000000000000000e+00 2.0450847260000000e+01 2.5121167500000001e+00
ITEM: ATOMS id type element x y z q
9 2 H 5.75132 6.83372 7.19224 0
10 2 H 3.40079 5.98265 3.66818 0
11 2 H 3.35775 8.35157 3.1234 0
12 2 H 4.9134 4.54731 6.87533 0
13 2 H 4.28435 3.96826 3.93671 0
15 2 H 3.29726 1.79855 10.1076 0
29 1 C 5.22187 7.15527 6.30329 0
30 1 C 4.6026 6.21309 5.46775 0
31 1 C 3.92449 6.66709 4.32054 0
32 1 C 3.8872 8.03002 4.01235 0
33 1 C 4.66281 4.77937 5.84639 0
34 1 C 4.47566 3.77147 4.98213 0
43 1 C 4.47558 2.28154 4.99564 0
50 4 O 5.58762 1.78153 5.00061 0
52 4 O 3.36349 1.7815 4.99986 0
230 2 H 14.8225 5.98265 3.66818 0
231 2 H 14.7794 8.35157 3.1234 0
235 2 H 14.7189 1.79855 10.1076 0
251 1 C 15.3462 6.66709 4.32054 0
252 1 C 15.3089 8.03002 4.01235 0
272 4 O 14.7852 1.7815 4.99986 0
229 2 H 17.173 6.83372 7.19224 0
232 2 H 16.3351 4.54731 6.87533 0
233 2 H 15.706 3.96826 3.93671 0
249 1 C 16.6436 7.15527 6.30329 0
250 1 C 16.0243 6.21309 5.46775 0
253 1 C 16.0845 4.77937 5.84639 0
254 1 C 15.8973 3.77147 4.98213 0
263 1 C 15.8973 2.28154 4.99564 0
270 4 O 17.0093 1.78153 5.00061 0
1 6 Zn 3.16823 15.3378 5.15732 0
2 6 Zn 6.09862 15.3378 5.15831 0
3 2 H 1.01593 15.612 8.9228 0
5 2 H 4.68671 14.8009 5.62266 0
6 2 H 4.82471 11.217 6.37893 0
7 2 H 4.19568 10.638 3.4403 0
8 2 H 5.70828 9.20264 6.64746 0
14 2 H 4.58025 15.8748 4.69298 0
16 2 H 5.93497 14.2407 8.33126 0
17 2 H 6.74167 12.3411 0.33682 0
18 2 H 5.9371 13.5054 2.34516 0
19 1 C 0.47275 15.4049 6.07888 0
25 1 C 4.63341 11.4138 5.33351 0
26 1 C 4.44626 10.4059 4.46925 0
27 1 C 4.50647 8.9722 4.84789 0
28 1 C 5.18458 8.5182 5.9951 0
35 1 C 4.63487 14.8589 1.25919 0
36 1 C 4.17175 16.4831 10.2068 0
37 1 C 4.6321 15.8167 9.05645 0
38 1 C 5.56216 14.7723 9.19783 0
39 1 C 6.02538 13.1466 0.23762 0
40 1 C 5.56494 13.8115 1.37541 0
41 1 C 4.6326 15.5824 7.58498 0
42 1 C 4.63428 15.0932 2.73065 0
44 1 C 4.63339 12.9037 5.31999 0
45 3 N 1.16831 15.3378 5.15653 0
48 4 O 5.74615 15.1718 3.22486 0
49 4 O 5.74483 15.5039 7.09152 0
51 4 O 5.74545 13.4038 5.31578 0
53 4 O 3.52069 15.5039 7.09077 0
54 4 O 3.52202 15.1718 3.2241 0
55 4 O 3.52132 13.4038 5.31501 0
4 2 H 10.1906 14.46 0.1269 0
20 1 C 11.0292 15.4884 7.22561 0
21 1 C 11.4254 15.5842 8.54116 0
22 1 C 10.2549 15.6377 9.27557 0
23 1 C 9.65053 15.489 7.23415 0
24 1 C 8.79029 15.4053 6.08414 0
46 3 N 8.09853 15.3379 5.15898 0
47 5 O 9.21638 15.579 8.46943 0
221 6 Zn 14.5899 15.3378 5.15732 0
223 2 H 12.4376 15.612 8.9228 0
239 1 C 11.8944 15.4049 6.07888 0
265 3 N 12.59 15.3378 5.15653 0
273 4 O 14.9424 15.5039 7.09077 0
274 4 O 14.9437 15.1718 3.2241 0
275 4 O 14.943 13.4038 5.31501 0
222 6 Zn 17.5203 15.3378 5.15831 0
224 2 H 21.6123 14.46 0.1269 0
225 2 H 16.1084 14.8009 5.62266 0
226 2 H 16.2464 11.217 6.37893 0
227 2 H 15.6174 10.638 3.4403 0
228 2 H 17.13 9.20264 6.64746 0
234 2 H 16.0019 15.8748 4.69298 0
236 2 H 17.3567 14.2407 8.33126 0
237 2 H 18.1634 12.3411 0.33682 0
238 2 H 17.3588 13.5054 2.34516 0
240 1 C 22.4509 15.4884 7.22561 0
241 1 C 22.8471 15.5842 8.54116 0
242 1 C 21.6766 15.6377 9.27557 0
243 1 C 21.0722 15.489 7.23415 0
244 1 C 20.212 15.4053 6.08414 0
245 1 C 16.0551 11.4138 5.33351 0
246 1 C 15.8679 10.4059 4.46925 0
247 1 C 15.9282 8.9722 4.84789 0
248 1 C 16.6063 8.5182 5.9951 0
255 1 C 16.0566 14.8589 1.25919 0
256 1 C 15.5934 16.4831 10.2068 0
257 1 C 16.0538 15.8167 9.05645 0
258 1 C 16.9838 14.7723 9.19783 0
259 1 C 17.4471 13.1466 0.23762 0
260 1 C 16.9866 13.8115 1.37541 0
261 1 C 16.0543 15.5824 7.58498 0
262 1 C 16.056 15.0932 2.73065 0
264 1 C 16.0551 12.9037 5.31999 0
266 3 N 19.5202 15.3379 5.15898 0
267 5 O 20.6381 15.579 8.46943 0
268 4 O 17.1678 15.1718 3.22486 0
269 4 O 17.1665 15.5039 7.09152 0
271 4 O 17.1671 13.4038 5.31578 0
118 2 H 5.86619 24.693 6.64746 0
119 2 H 5.90923 22.3241 7.19224 0
120 2 H 3.5587 21.473 3.66818 0
121 2 H 3.51566 23.8419 3.1234 0
122 2 H 5.07131 20.0376 6.87533 0
123 2 H 4.44226 19.4586 3.93671 0
125 2 H 3.45516 17.2889 10.1076 0
137 1 C 4.66438 24.4625 4.84789 0
138 1 C 5.34249 24.0085 5.9951 0
139 1 C 5.37978 22.6456 6.30329 0
140 1 C 4.76051 21.7034 5.46775 0
141 1 C 4.0824 22.1574 4.32054 0
142 1 C 4.04511 23.5204 4.01235 0
143 1 C 4.82072 20.2697 5.84639 0
144 1 C 4.63356 19.2618 4.98213 0
153 1 C 4.63349 17.7719 4.99564 0
160 4 O 5.74553 17.2719 5.00061 0
162 4 O 3.52139 17.2718 4.99986 0
340 2 H 14.9804 21.473 3.66818 0
341 2 H 14.9374 23.8419 3.1234 0
345 2 H 14.8769 17.2889 10.1076 0
382 4 O 14.9431 17.2718 4.99986 0
338 2 H 17.2879 24.693 6.64746 0
339 2 H 17.3309 22.3241 7.19224 0
342 2 H 16.493 20.0376 6.87533 0
343 2 H 15.8639 19.4586 3.93671 0
357 1 C 16.0861 24.4625 4.84789 0
358 1 C 16.7642 24.0085 5.9951 0
359 1 C 16.8015 22.6456 6.30329 0
360 1 C 16.1822 21.7034 5.46775 0
361 1 C 15.5041 22.1574 4.32054 0
362 1 C 15.4668 23.5204 4.01235 0
363 1 C 16.2424 20.2697 5.84639 0
364 1 C 16.0552 19.2618 4.98213 0
373 1 C 16.0552 17.7719 4.99564 0
380 4 O 17.1672 17.2719 5.00061 0
111 6 Zn 3.32613 30.8281 5.15732 0
112 6 Zn 6.25653 30.8282 5.15831 0
113 2 H 1.17384 31.1024 8.9228 0
115 2 H 4.84462 30.2912 5.62266 0
116 2 H 4.98262 26.7074 6.37893 0
117 2 H 4.35359 26.1283 3.4403 0
124 2 H 4.73816 31.3651 4.69298 0
126 2 H 6.09288 29.731 8.33126 0
127 2 H 6.89958 27.8314 0.33682 0
128 2 H 6.09501 28.9957 2.34516 0
129 1 C 0.63066 30.8953 6.07888 0
135 1 C 4.79132 26.9042 5.33351 0
136 1 C 4.60417 25.8963 4.46925 0
145 1 C 4.79278 30.3493 1.25919 0
146 1 C 4.32965 31.9734 10.2068 0
147 1 C 4.79001 31.307 9.05645 0
148 1 C 5.72007 30.2627 9.19783 0
149 1 C 6.18329 28.6369 0.23762 0
150 1 C 5.72285 29.3018 1.37541 0
151 1 C 4.7905 31.0728 7.58498 0
152 1 C 4.79219 30.5835 2.73065 0
154 1 C 4.7913 28.3941 5.31999 0
155 3 N 1.32622 30.8281 5.15653 0
158 4 O 5.90406 30.6621 3.22486 0
159 4 O 5.90273 30.9942 7.09152 0
161 4 O 5.90336 28.8941 5.31578 0
163 4 O 3.6786 30.9942 7.09077 0
164 4 O 3.67993 30.6621 3.2241 0
165 4 O 3.67922 28.8941 5.31501 0
114 2 H 10.3485 29.9503 0.1269 0
130 1 C 11.1872 30.9788 7.22561 0
131 1 C 11.5833 31.0746 8.54116 0
132 1 C 10.4128 31.128 9.27557 0
133 1 C 9.80844 30.9794 7.23415 0
134 1 C 8.9482 30.8956 6.08414 0
156 3 N 8.25644 30.8283 5.15898 0
157 5 O 9.37429 31.0693 8.46943 0
331 6 Zn 14.7478 30.8281 5.15732 0
333 2 H 12.5955 31.1024 8.9228 0
349 1 C 12.0523 30.8953 6.07888 0
375 3 N 12.7479 30.8281 5.15653 0
383 4 O 15.1003 30.9942 7.09077 0
384 4 O 15.1016 30.6621 3.2241 0
385 4 O 15.1009 28.8941 5.31501 0
332 6 Zn 17.6782 30.8282 5.15831 0
334 2 H 21.7702 29.9503 0.1269 0
335 2 H 16.2663 30.2912 5.62266 0
336 2 H 16.4043 26.7074 6.37893 0
337 2 H 15.7753 26.1283 3.4403 0
344 2 H 16.1598 31.3651 4.69298 0
346 2 H 17.5146 29.731 8.33126 0
347 2 H 18.3213 27.8314 0.33682 0
348 2 H 17.5167 28.9957 2.34516 0
350 1 C 22.6088 30.9788 7.22561 0
351 1 C 23.005 31.0746 8.54116 0
352 1 C 21.8345 31.128 9.27557 0
353 1 C 21.2301 30.9794 7.23415 0
354 1 C 20.3699 30.8956 6.08414 0
355 1 C 16.213 26.9042 5.33351 0
356 1 C 16.0259 25.8963 4.46925 0
365 1 C 16.2145 30.3493 1.25919 0
366 1 C 15.7513 31.9734 10.2068 0
367 1 C 16.2117 31.307 9.05645 0
368 1 C 17.1418 30.2627 9.19783 0
369 1 C 17.605 28.6369 0.23762 0
370 1 C 17.1445 29.3018 1.37541 0
371 1 C 16.2122 31.0728 7.58498 0
372 1 C 16.2139 30.5835 2.73065 0
374 1 C 16.213 28.3941 5.31999 0
376 3 N 19.6781 30.8283 5.15898 0
377 5 O 20.796 31.0693 8.46943 0
378 4 O 17.3258 30.6621 3.22486 0
379 4 O 17.3244 30.9942 7.09152 0
381 4 O 17.325 28.8941 5.31578 0
64 2 H 5.74769 8.08978 17.4177 0
65 2 H 3.39716 7.23871 13.8936 0
67 2 H 4.90977 5.80337 17.1008 0
68 2 H 4.28072 5.22432 14.1621 0
70 2 H 3.29363 3.05461 20.333 0
85 1 C 4.59898 7.46915 15.6932 0
86 1 C 3.92087 7.92315 14.546 0
88 1 C 4.65918 6.03543 16.0718 0
89 1 C 4.47203 5.02753 15.2075 0
98 1 C 4.47195 3.53759 15.2211 0
105 4 O 5.58399 3.03759 15.226 0
107 4 O 3.35986 3.03756 15.2253 0
285 2 H 14.8189 7.23871 13.8936 0
290 2 H 14.7153 3.05461 20.333 0
306 1 C 15.3425 7.92315 14.546 0
327 4 O 14.7815 3.03756 15.2253 0
284 2 H 17.1694 8.08978 17.4177 0
287 2 H 16.3315 5.80337 17.1008 0
288 2 H 15.7024 5.22432 14.1621 0
305 1 C 16.0207 7.46915 15.6932 0
308 1 C 16.0809 6.03543 16.0718 0
309 1 C 15.8937 5.02753 15.2075 0
318 1 C 15.8936 3.53759 15.2211 0
325 4 O 17.0057 3.03759 15.226 0
56 6 Zn 3.1646 16.5938 15.3827 0
57 6 Zn 6.09499 16.5939 15.3837 0
60 2 H 4.68309 16.0569 15.8481 0
61 2 H 4.82108 12.4731 16.6043 0
62 2 H 4.19205 11.894 13.6657 0
63 2 H 5.70465 10.4587 16.8729 0
66 2 H 3.35412 9.60762 13.3488 0
71 2 H 5.93135 15.4967 18.5567 0
72 2 H 6.73804 13.5971 10.5622 0
73 2 H 5.93347 14.7614 12.5706 0
74 1 C 0.46912 16.661 16.3043 0
80 1 C 4.62978 12.6699 15.5589 0
81 1 C 4.44264 11.662 14.6947 0
82 1 C 4.50284 10.2283 15.0733 0
83 1 C 5.18095 9.77426 16.2205 0
84 1 C 5.21824 8.41133 16.5287 0
87 1 C 3.88357 9.28608 14.2378 0
90 1 C 4.63124 16.115 11.4846 0
93 1 C 5.55854 16.0284 19.4233 0
94 1 C 6.02175 14.4026 10.463 0
95 1 C 5.56131 15.0675 11.6008 0
97 1 C 4.63066 16.3493 12.9561 0
99 1 C 4.62976 14.1598 15.5454 0
100 3 N 1.16469 16.5938 15.382 0
103 4 O 5.74253 16.4279 13.4503 0
106 4 O 5.74182 14.6598 15.5412 0
109 4 O 3.51839 16.4278 13.4495 0
110 4 O 3.51769 14.6598 15.5404 0
59 2 H 10.187 15.7161 10.3523 0
75 1 C 11.0256 16.7445 17.451 0
78 1 C 9.64691 16.7451 17.4596 0
79 1 C 8.78667 16.6614 16.3096 0
101 3 N 8.0949 16.594 15.3844 0
276 6 Zn 14.5863 16.5938 15.3827 0
286 2 H 14.7758 9.60762 13.3488 0
294 1 C 11.8908 16.661 16.3043 0
307 1 C 15.3053 9.28608 14.2378 0
320 3 N 12.5864 16.5938 15.382 0
329 4 O 14.9401 16.4278 13.4495 0
330 4 O 14.9394 14.6598 15.5404 0
277 6 Zn 17.5167 16.5939 15.3837 0
279 2 H 21.6087 15.7161 10.3523 0
280 2 H 16.1048 16.0569 15.8481 0
281 2 H 16.2428 12.4731 16.6043 0
282 2 H 15.6137 11.894 13.6657 0
283 2 H 17.1263 10.4587 16.8729 0
291 2 H 17.353 15.4967 18.5567 0
292 2 H 18.1597 13.5971 10.5622 0
293 2 H 17.3552 14.7614 12.5706 0
295 1 C 22.4473 16.7445 17.451 0
298 1 C 21.0686 16.7451 17.4596 0
299 1 C 20.2084 16.6614 16.3096 0
300 1 C 16.0515 12.6699 15.5589 0
301 1 C 15.8643 11.662 14.6947 0
302 1 C 15.9245 10.2283 15.0733 0
303 1 C 16.6026 9.77426 16.2205 0
304 1 C 16.6399 8.41133 16.5287 0
310 1 C 16.0529 16.115 11.4846 0
313 1 C 16.9802 16.0284 19.4233 0
314 1 C 17.4434 14.4026 10.463 0
315 1 C 16.983 15.0675 11.6008 0
317 1 C 16.0523 16.3493 12.9561 0
319 1 C 16.0514 14.1598 15.5454 0
321 3 N 19.5166 16.594 15.3844 0
323 4 O 17.1642 16.4279 13.4503 0
326 4 O 17.1635 14.6598 15.5412 0
58 2 H 1.0123 16.8681 19.1482 0
69 2 H 4.57662 17.1308 14.9184 0
91 1 C 4.16812 17.7391 20.4323 0
92 1 C 4.62848 17.0728 19.2819 0
96 1 C 4.62897 16.8385 17.8104 0
104 4 O 5.7412 16.7599 17.3169 0
108 4 O 3.51707 16.7599 17.3162 0
174 2 H 5.9056 23.5801 17.4177 0
175 2 H 3.55507 22.729 13.8936 0
176 2 H 3.51203 25.098 13.3488 0
177 2 H 5.06768 21.2937 17.1008 0
178 2 H 4.43863 20.7147 14.1621 0
180 2 H 3.45154 18.5449 20.333 0
194 1 C 5.37615 23.9017 16.5287 0
195 1 C 4.75688 22.9595 15.6932 0
196 1 C 4.07877 23.4135 14.546 0
197 1 C 4.04148 24.7764 14.2378 0
198 1 C 4.81709 21.5258 16.0718 0
199 1 C 4.62994 20.5179 15.2075 0
208 1 C 4.62986 19.0279 15.2211 0
215 4 O 5.7419 18.5279 15.226 0
217 4 O 3.51777 18.5279 15.2253 0
76 1 C 11.4217 16.8403 18.7666 0
77 1 C 10.2513 16.8937 19.501 0
102 5 O 9.21276 16.835 18.6949 0
278 2 H 12.434 16.8681 19.1482 0
328 4 O 14.9387 16.7599 17.3162 0
395 2 H 14.9768 22.729 13.8936 0
396 2 H 14.9337 25.098 13.3488 0
400 2 H 14.8732 18.5449 20.333 0
437 4 O 14.9394 18.5279 15.2253 0
289 2 H 15.9983 17.1308 14.9184 0
296 1 C 22.8434 16.8403 18.7666 0
297 1 C 21.673 16.8937 19.501 0
311 1 C 15.5898 17.7391 20.4323 0
312 1 C 16.0502 17.0728 19.2819 0
316 1 C 16.0507 16.8385 17.8104 0
322 5 O 20.6344 16.835 18.6949 0
324 4 O 17.1629 16.7599 17.3169 0
394 2 H 17.3273 23.5801 17.4177 0
397 2 H 16.4894 21.2937 17.1008 0
398 2 H 15.8603 20.7147 14.1621 0
414 1 C 16.7978 23.9017 16.5287 0
415 1 C 16.1786 22.9595 15.6932 0
416 1 C 15.5005 23.4135 14.546 0
417 1 C 15.4632 24.7764 14.2378 0
418 1 C 16.2388 21.5258 16.0718 0
419 1 C 16.0516 20.5179 15.2075 0
428 1 C 16.0515 19.0279 15.2211 0
435 4 O 17.1636 18.5279 15.226 0
166 6 Zn 3.32251 32.0842 15.3827 0
167 6 Zn 6.2529 32.0842 15.3837 0
168 2 H 1.17021 32.3584 19.1482 0
170 2 H 4.841 31.5472 15.8481 0
171 2 H 4.97899 27.9634 16.6043 0
172 2 H 4.34996 27.3844 13.6657 0
173 2 H 5.86256 25.949 16.8729 0
179 2 H 4.73453 32.6212 14.9184 0
181 2 H 6.08926 30.9871 18.5567 0
182 2 H 6.89595 29.0875 10.5622 0
183 2 H 6.09138 30.2518 12.5706 0
184 1 C 0.62703 32.1513 16.3043 0
190 1 C 4.78769 28.1602 15.5589 0
191 1 C 4.60055 27.1523 14.6947 0
192 1 C 4.66075 25.7186 15.0733 0
193 1 C 5.33886 25.2646 16.2205 0
200 1 C 4.78915 31.6053 11.4846 0
201 1 C 4.32603 33.2295 20.4323 0
202 1 C 4.78639 32.5631 19.2819 0
203 1 C 5.71645 31.5187 19.4233 0
204 1 C 6.17966 29.893 10.463 0
205 1 C 5.71922 30.5579 11.6008 0
206 1 C 4.78688 32.3288 17.8104 0
207 1 C 4.78856 31.8396 12.9561 0
209 1 C 4.78767 29.6501 15.5454 0
210 3 N 1.3226 32.0842 15.382 0
213 4 O 5.90044 31.9182 13.4503 0
214 4 O 5.89911 32.2503 17.3169 0
216 4 O 5.89973 30.1502 15.5412 0
218 4 O 3.67497 32.2503 17.3162 0
219 4 O 3.6763 31.9182 13.4495 0
220 4 O 3.6756 30.1502 15.5404 0
169 2 H 10.3449 31.2064 10.3523 0
185 1 C 11.1835 32.2348 17.451 0
186 1 C 11.5797 32.3306 18.7666 0
187 1 C 10.4092 32.3841 19.501 0
188 1 C 9.80481 32.2355 17.4596 0
189 1 C 8.94458 32.1517 16.3096 0
211 3 N 8.25281 32.0843 15.3844 0
212 5 O 9.37067 32.3254 18.6949 0
386 6 Zn 14.7442 32.0842 15.3827 0
388 2 H 12.5919 32.3584 19.1482 0
404 1 C 12.0487 32.1513 16.3043 0
430 3 N 12.7443 32.0842 15.382 0
438 4 O 15.0967 32.2503 17.3162 0
439 4 O 15.098 31.9182 13.4495 0
440 4 O 15.0973 30.1502 15.5404 0
387 6 Zn 17.6746 32.0842 15.3837 0
389 2 H 21.7666 31.2064 10.3523 0
390 2 H 16.2627 31.5472 15.8481 0
391 2 H 16.4007 27.9634 16.6043 0
392 2 H 15.7716 27.3844 13.6657 0
393 2 H 17.2842 25.949 16.8729 0
399 2 H 16.1562 32.6212 14.9184 0
401 2 H 17.5109 30.9871 18.5567 0
402 2 H 18.3176 29.0875 10.5622 0
403 2 H 17.5131 30.2518 12.5706 0
405 1 C 22.6052 32.2348 17.451 0
406 1 C 23.0013 32.3306 18.7666 0
407 1 C 21.8309 32.3841 19.501 0
408 1 C 21.2265 32.2355 17.4596 0
409 1 C 20.3663 32.1517 16.3096 0
410 1 C 16.2094 28.1602 15.5589 0
411 1 C 16.0222 27.1523 14.6947 0
412 1 C 16.0824 25.7186 15.0733 0
413 1 C 16.7606 25.2646 16.2205 0
420 1 C 16.2108 31.6053 11.4846 0
421 1 C 15.7477 33.2295 20.4323 0
422 1 C 16.2081 32.5631 19.2819 0
423 1 C 17.1381 31.5187 19.4233 0
424 1 C 17.6014 29.893 10.463 0
425 1 C 17.1409 30.5579 11.6008 0
426 1 C 16.2086 32.3288 17.8104 0
427 1 C 16.2102 31.8396 12.9561 0
429 1 C 16.2094 29.6501 15.5454 0
431 3 N 19.6745 32.0843 15.3844 0
432 5 O 20.7923 32.3254 18.6949 0
433 4 O 17.3221 31.9182 13.4503 0
434 4 O 17.3208 32.2503 17.3169 0
436 4 O 17.3214 30.1502 15.5412 0
