LAMMPS (29 Aug 2024 - Update 3)
  using 1 OpenMP thread(s) per MPI task
units           real
atom_style      full
boundary        p p p

bond_style      harmonic
angle_style     hybrid cosine/periodic fourier
dihedral_style  harmonic
improper_style  fourier

dielectric      1.0
pair_style      lj/cut 12.5
pair_modify     shift yes mix geometric
special_bonds   lj 0.0 0.0 1.0
box             tilt large

The 'box' command has been removed and will be ignored

read_data       data.lmp
Reading data file ...
  triclinic box = (0 0 0) to (22.843371 30.980678 20.450847) with tilt (0.3158177 -0.00725235 2.5121168)
  1 by 1 by 1 MPI processor grid
WARNING: Atom style in data file a, b, c, alpha, beta, gamma: 22.8433711496, 30.9822872640, 20.6045610682, 82.9976242796, 90.0201668494, 89.4159458060 $$$atoms$$$ differs from currently defined atom style full (src/src/read_data.cpp:706)
  reading atoms ...
  440 atoms
  scanning bonds ...
  7 = max bonds/atom
  scanning angles ...
  21 = max angles/atom
  scanning dihedrals ...
  12 = max dihedrals/atom
  scanning impropers ...
  2 = max impropers/atom
  triclinic box = (0 0 0) to (22.843371 30.980678 20.450847) with tilt (0.3158177 -0.00725235 2.5121168)
  1 by 1 by 1 MPI processor grid
  reading bonds ...
  520 bonds
  reading angles ...
  1032 angles
  reading dihedrals ...
  944 dihedrals
  reading impropers ...
  192 impropers
Finding 1-2 1-3 1-4 neighbors ...
  special bond factors lj:    0        0        1       
  special bond factors coul:  0        0        0       
     7 = max # of 1-2 neighbors
    12 = max # of 1-3 neighbors
    28 = max # of 1-4 neighbors
    23 = max # of special neighbors
  special bonds CPU = 0.000 seconds
  read_data CPU = 0.203 seconds




# simulation
fix                 fxnpt all npt temp 300.0 300.0 $(200.0*dt) tri 1.0 1.0 $(800.0*dt)
fix                 fxnpt all npt temp 300.0 300.0 200 tri 1.0 1.0 $(800.0*dt)
fix                 fxnpt all npt temp 300.0 300.0 200 tri 1.0 1.0 800
variable            Nevery equal 2500
thermo              ${Nevery}
thermo              2500
thermo_style        custom step cpu dt time temp press pe ke etotal density xlo ylo zlo cella cellb cellc cellalpha cellbeta cellgamma
thermo_modify       flush yes
minimize            1.0e-10 1.0e-10 10000 100000
Generated 15 of 15 mixed pair_coeff terms from geometric mixing rule
Neighbor list info ...
  update: every = 1 steps, delay = 0 steps, check = yes
  max neighbors/atom: 2000, page size: 100000
  master list distance cutoff = 14.5
  ghost atom cutoff = 14.5
  binsize = 7.25, bins = 4 5 3
  1 neighbor lists, perpetual/occasional/extra = 1 0 0
  (1) pair lj/cut, perpetual
      attributes: half, newton on
      pair build: half/bin/newton/tri
      stencil: half/bin/3d/tri
      bin: standard
WARNING: Inconsistent image flags (src/src/domain.cpp:1051)
Per MPI rank memory allocation (min/avg/max) = 19.35 | 19.35 | 19.35 Mbytes
   Step          CPU             Dt            Time           Temp          Press          PotEng         KinEng         TotEng        Density          Xlo            Ylo            Zlo           Cella          Cellb          Cellc        CellAlpha       CellBeta      CellGamma   
         0   0              1              0              0              63779.667      7380.493       0              7380.493       0.57932892     0              0              0              22.843371      30.982287      20.604561      82.997624      90.020167      89.415946    
         8   3.3978225      1              8              0              63779.653      7380.095       0              7380.095       0.57932892     0              0              0              22.843371      30.982287      20.604561      82.997624      90.020167      89.415946    
Loop time of 3.39786 on 1 procs for 8 steps with 440 atoms

6.5% CPU use with 1 MPI tasks x 1 OpenMP threads

Minimization stats:
  Stopping criterion = energy tolerance
  Energy initial, next-to-last, final = 
      7380.49296730688   7380.09504840831   7380.09504788402
  Force two-norm initial, final = 108606.31 35683.843
  Force max component initial, final = 40576.223 15951.003
  Final line search alpha, max atom move = 7.6527966e-10 1.2206978e-05
  Iterations, force evaluations = 8 177

MPI task timing breakdown:
Section |  min time  |  avg time  |  max time  |%varavg| %total
---------------------------------------------------------------
Pair    | 3.2813     | 3.2813     | 3.2813     |   0.0 | 96.57
Bond    | 0.1136     | 0.1136     | 0.1136     |   0.0 |  3.34
Neigh   | 0          | 0          | 0          |   0.0 |  0.00
Comm    | 0.0021424  | 0.0021424  | 0.0021424  |   0.0 |  0.06
Output  | 0          | 0          | 0          |   0.0 |  0.00
Modify  | 0          | 0          | 0          |   0.0 |  0.00
Other   |            | 0.0008506  |            |       |  0.03

Nlocal:            440 ave         440 max         440 min
Histogram: 1 0 0 0 0 0 0 0 0 0
Nghost:           3530 ave        3530 max        3530 min
Histogram: 1 0 0 0 0 0 0 0 0 0
Neighs:          81288 ave       81288 max       81288 min
Histogram: 1 0 0 0 0 0 0 0 0 0

Total # of neighbors = 81288
Ave neighs/atom = 184.74545
Ave special neighs/atom = 12.836364
Neighbor list builds = 0
Dangerous builds = 0
reset_timestep      0
dump                trajectAll all custom ${Nevery} dump.lammpstrj.all id type element x y z q
dump                trajectAll all custom 2500 dump.lammpstrj.all id type element x y z q
dump_modify         trajectAll element C H N O O Zn
timestep            0.5
run                 10000
Generated 15 of 15 mixed pair_coeff terms from geometric mixing rule
WARNING: Inconsistent image flags (src/src/domain.cpp:1051)
Per MPI rank memory allocation (min/avg/max) = 18.22 | 18.22 | 18.22 Mbytes
   Step          CPU             Dt            Time           Temp          Press          PotEng         KinEng         TotEng        Density          Xlo            Ylo            Zlo           Cella          Cellb          Cellc        CellAlpha       CellBeta      CellGamma   
         0   0              0.5            0              0              63779.653      7380.095       0              7380.095       0.57932892     0              0              0              22.843371      30.982287      20.604561      82.997624      90.020167      89.415946    
