Created by Ryther's code on 2025-08-05 19:07:10.922600, modified by xyan11@uic.edu. 

    528 atoms
    600 bonds
    1152 angles
    1168 dihedrals
    240 impropers

    8 atom types
    12 bond types
    19 angle types
    5 dihedral types
    3 improper types

0.00000000 35.61487248 xlo xhi
0.00000000 20.58891351 ylo yhi
0.00000000 20.53640185 zlo zhi
0.57795933 0.21840076 1.58945915 xy xz yz 

Masses 

    1    12.0107  #   C
    2     35.453  #  Cl
    3    1.00794  #   H
    4    14.0067  #   N
    5    14.0067  #   N
    6    15.9994  #   O
    7    15.9994  #   O
    8      65.38  #  Zn

Pair Coeffs

    1       0.10500      3.43085  #  C_R C_R
    2       0.22700      3.51638  #  Cl_f Cl_f
    3       0.04400      2.57113  #  H_ H_
    4       0.06900      3.26069  #  N_2 N_2
    5       0.06900      3.26069  #  N_R N_R
    6       0.06000      3.11815  #  O_1 O_1
    7       0.06000      3.11815  #  O_2_M O_2_M
    8       0.12400      2.46155  #  Zn4+2 Zn4+2

Bond Coeffs

    1      48.90184      1.84943  #  H_ Zn4+2 bond order=0.5
    2     104.44141      2.12294  #  O_2_M Zn4+2 bond order=0.5
    3     103.61325      2.20128  #  N_2 Zn4+2 bond order=0.5
    4     357.44038      1.08142  #  C_R H_ bond order=1.0
    5     462.65505      1.37926  #  C_R C_R bond order=1.5
    6     931.53598      1.20133  #  C_R N_2 bond order=3.0
    7     391.66951      1.45800  #  C_R C_R bond order=1.0
    8     277.92768      1.75058  #  C_R Cl_f bond order=1.0
    9     706.67500      1.27367  #  C_R O_1 bond order=1.5
    10    561.44721      1.42220  #  C_R N_R bond order=1.0
    11    714.55744      1.26901  #  C_R O_2_M bond order=1.5
    12    968.67061      1.26107  #  N_R O_1 bond order=1.5

Angle Coeffs

    1  cosine/periodic         36.20045            1            4  #  H_ Zn4+2 O_2_M
    2  cosine/periodic         14.11273            1            4  #  H_ Zn4+2 H_
    3  cosine/periodic         37.39156            1            4  #  H_ Zn4+2 N_2
    4  cosine/periodic         97.36576            1            4  #  O_2_M Zn4+2 O_2_M
    5  cosine/periodic        101.82219            1            4  #  N_2 Zn4+2 O_2_M
    6  cosine/periodic        179.74893           -1            3  #  C_R C_R N_2
    7  cosine/periodic        111.29751           -1            3  #  C_R C_R C_R
    8  cosine/periodic         57.28902           -1            3  #  C_R C_R H_
    9  cosine/periodic        102.18328           -1            3  #  C_R C_R C_R
    10 cosine/periodic         85.93361           -1            3  #  C_R C_R Cl_f
    11 cosine/periodic        137.04263           -1            3  #  C_R C_R O_1
    12 cosine/periodic        120.81219           -1            3  #  Cl_f C_R O_1
    13 cosine/periodic        141.32633           -1            3  #  C_R C_R N_R
    14 cosine/periodic        137.71425           -1            3  #  C_R C_R O_2_M
    15 cosine/periodic        206.77843           -1            3  #  O_2_M C_R O_2_M
    16 fourier                 84.89470      0.36401      0.41847      0.28800  #  C_R N_2 Zn4+2
    17 cosine/periodic        144.77301           -1            3  #  C_R N_R O_1
    18 cosine/periodic        210.67420           -1            3  #  O_1 N_R O_1
    19 cosine/periodic         37.72922           -1            3  #  C_R O_2_M Zn4+2

Dihedral Coeffs

    1       6.73711           -1            2  #  X C_R C_R X bond order=1.5
    2      27.96100           -1            2  #  X C_R N_2 X bond order=3.0
    3       1.25000           -1            2  #  X C_R C_R X bond order=1.0
    4       1.25000           -1            2  #  X C_R N_R X bond order=1.0
    5       6.73711           -1            2  #  X C_R O_2_M X bond order=1.5

Improper Coeffs

    1       2.00000      1.00000     -1.00000      0.00000            1  #  C_R X X X O_2 present=False
    2      16.66667      1.00000     -1.00000      0.00000            1  #  C_R X X X O_2 present=True
    3       2.00000      1.00000     -1.00000      0.00000            1  #  N_R X X X O_2 present=False

Atoms # a, b, c, alpha, beta, gamma: 35.6148724757, 20.5970239711, 20.5989776548, 85.5591906678, 89.3925098361, 88.3920503477 $$$atoms$$$

    1 1     8      0.00000     14.76960      4.38006      5.70341   #   Zn1   0.40989559   0.19129888   0.27772213
    2 1     8      0.00000     17.69873      4.29778      5.67857   #   Zn2   0.49221104   0.18739570   0.27651245
    3 1     3      0.00000     10.71034      2.49642      3.65173   #    H1   0.29789143   0.10752322   0.17781763
    4 1     3      0.00000      8.39836      1.71697      3.39911   #    H2   0.23364951   0.07061518   0.16551622
    5 1     3      0.00000      5.37409      4.11345      5.60833   #    H3   0.14631989   0.17870670   0.27309211
    6 1     3      0.00000      2.60627      0.96032      4.66164   #    H4   0.07131475   0.02911870   0.22699421
    7 1     3      0.00000      4.78218      9.73221      4.19519   #    H5   0.12560730   0.45692135   0.20428079
    8 1     3      0.00000      7.10382     10.50631      4.44376   #    H6   0.19012523   0.49358496   0.21638476
    9 1     3      0.00000      7.31048      3.80892      7.02093   #    H7   0.20059448   0.15860579   0.34187739
   10 1     3      0.00000      9.62023      4.60255      7.24797   #    H8   0.26476859   0.19629855   0.35293287
   11 1     3      0.00000     15.77291      3.80032      5.99053   #    H9   0.43845541   0.16206149   0.29170314
   12 1     3      0.00000     17.76284      1.29583      4.60747   #   H10   0.49663159   0.04561780   0.22435622
   13 1     3      0.00000     17.92678      7.28937      4.61036   #   H11   0.49651001   0.33671245   0.22449704
   14 1     3      0.00000     14.90390      9.52751      6.68185   #   H12   0.40937689   0.43763126   0.32536603
   15 1     3      0.00000     15.80282      4.90262      5.99119   #   H13   0.43842645   0.21559728   0.29173537
   16 1     3      0.00000     16.71883      4.07955      5.15289   #   H14   0.46499405   0.17877247   0.25091493
   17 1     3      0.00000     14.42277      4.89415      2.65705   #   H15   0.40047595   0.22771967   0.12938257
   18 1     3      0.00000     14.48610      5.35744      8.64120   #   H16   0.40046716   0.22772630   0.42077464
   19 1     3      0.00000     17.80486      3.22303      0.59522   #   H17   0.49724599   0.15430429   0.02898375
   20 1     3      0.00000     16.73035      4.16471      6.25221   #   H18   0.46498922   0.17877605   0.30444521
   21 1     1      0.00000     11.68025      4.06516      5.60707   #    C1   0.32342350   0.17636636   0.27303087
   22 1     1      0.00000     10.32404      3.60361      5.46628   #    C2   0.28574091   0.15447787   0.26617505
   23 1     1      0.00000      9.96974      2.78490      4.38810   #    C3   0.27669431   0.11876677   0.21367404
   24 1     1      0.00000      8.65289      2.33555      4.25055   #    C4   0.24010646   0.09745898   0.20697617
   25 1     1      0.00000      7.67155      2.70099      5.19084   #    C5   0.21204086   0.11167349   0.25276309
   26 1     1      0.00000      6.27213      2.22470      5.04551   #    C6   0.17315741   0.08908626   0.24568602
   27 1     1      0.00000      5.19142      3.08704      5.31184   #    C7   0.14207011   0.12996886   0.25865462
   28 1     1      0.00000      3.87198      2.63561      5.17443   #    C8   0.10541111   0.10855954   0.25196359
   29 1     1      0.00000      2.77339      3.52595      5.44449   #    C9   0.07379880   0.15078797   0.26511412
   30 1     1      0.00000      3.62277      1.31916      4.77043   #   C10   0.09954763   0.04613861   0.23229129
   31 1     1      0.00000      4.68821      0.45667      4.50401   #   C11   0.13020624   0.00524908   0.21931849
   32 1     1      0.00000      6.00539      0.90388      4.63934   #   C12   0.16680552   0.02646111   0.22590826
   33 1     1      0.00000      8.03833      3.52496      6.27128   #   C13   0.22143317   0.14763180   0.30537372
   34 1     1      0.00000      9.35605      3.97222      6.40723   #   C14   0.25804745   0.16884439   0.31199376
   35 1     1      0.00000     16.41285     10.70700      5.69109   #   C15   0.45105116   0.49864344   0.27712199
   36 1     1      0.00000     17.57781     10.66409      4.90822   #   C16   0.48398102   0.49950207   0.23900109
   37 1     1      0.00000      0.32942      9.43665      4.50980   #   C17   0.00074011   0.44138345   0.21960014
   38 1     1      0.00000     17.51043      8.24219      4.90781   #   C18   0.48399817   0.38187266   0.23898123
   39 1     1      0.00000     16.34459      8.26530      5.69090   #   C19   0.45105907   0.38005127   0.27711282
   40 1     1      0.00000     15.80280      9.50231      6.07792   #   C20   0.43477962   0.43867770   0.29595857
   41 1     1      0.00000      1.56223      9.41398      3.68177   #   C21   0.03556966   0.44339521   0.17928021
   42 1     1      0.00000     16.19256      4.03585      1.77499   #   C22   0.45105440   0.18934792   0.08643163
   43 1     1      0.00000     14.90829      4.60280      1.73460   #   C23   0.41455734   0.21703670   0.08446479
   44 1     1      0.00000     14.24427      4.79726      0.51199   #   C24   0.39605010   0.23107731   0.02493104
   45 1     1      0.00000     14.99192      5.21050      9.58701   #   C25   0.41456086   0.21703399   0.46683011
   46 1     1      0.00000     16.27590      4.64200      9.60699   #   C26   0.45105580   0.18934679   0.46780321
   47 1     1      0.00000     16.81438      3.66093      0.57186   #   C27   0.46909528   0.17566105   0.02784606
   48 1     1      0.00000     16.25862      4.47416      8.12658   #   C28   0.45105466   0.18675992   0.39571587
   49 1     1      0.00000     16.20974      4.20370      3.25540   #   C29   0.45105286   0.19193544   0.15851875
   50 1     1      0.00000     16.30223      6.77685      5.63780   #   C30   0.45105563   0.30795718   0.27452699
   51 1     1      0.00000     16.16613      1.90099      5.74419   #   C31   0.45105187   0.07073740   0.27970767
   52 1     4      0.00000     12.77055      4.43622      5.72026   #    N1   0.35371764   0.19396317   0.27854246
   53 1     4      0.00000      1.89035      4.24172      5.66161   #    N2   0.04838899   0.18473671   0.27568677
   54 1     5      0.00000     12.92732      5.37984      0.48511   #    N3   0.35861960   0.25947419   0.02362196
   55 1     2      0.00000      2.30322      7.90828      3.15599   #   Cl1   0.05768719   0.37223972   0.15367762
   56 1     6      0.00000      2.11215     10.49263      3.33291   #    O1   0.05024323   0.49709645   0.16229277
   57 1     6      0.00000     12.30286      5.75306      1.65336   #    O2   0.34051439   0.27320997   0.08050899
   58 1     6      0.00000     12.43931      6.35088      9.67100   #    O3   0.34196927   0.27210608   0.47091984
   59 1     7      0.00000     17.32710      4.22875      3.74282   #    O4   0.48229063   0.19131977   0.18225278
   60 1     7      0.00000     17.36441      4.38665      7.62031   #    O5   0.48229241   0.18441268   0.37106354
   61 1     7      0.00000     17.39961      6.24610      5.61060   #    O6   0.48229277   0.28228102   0.27320266
   62 1     7      0.00000     17.29189      2.36929      5.75253   #    O7   0.48229024   0.09345143   0.28011361
   63 1     7      0.00000     15.17643      6.30855      5.62946   #    O8   0.41981635   0.28524315   0.27412097
   64 1     7      0.00000     15.14123      4.44911      7.63917   #    O9   0.41981599   0.18737559   0.37198181
   65 1     7      0.00000     15.10392      4.29121      3.76166   #   O10   0.41981421   0.19428265   0.18317027
   66 1     7      0.00000     15.06872      2.43175      5.77137   #   O11   0.41981382   0.09641432   0.28103115
   67 1     8      0.00000     14.87880      5.17479     15.97161   #   Zn1   0.40989559   0.19129888   0.77772213
   68 1     8      0.00000     17.80793      5.09251     15.94677   #   Zn2   0.49221104   0.18739570   0.77651245
   69 1     3      0.00000     10.81955      3.29115     13.91994   #    H1   0.29789143   0.10752322   0.67781763
   70 1     3      0.00000      8.50756      2.51170     13.66731   #    H2   0.23364951   0.07061518   0.66551622
   71 1     3      0.00000      5.48329      4.90818     15.87653   #    H3   0.14631989   0.17870670   0.77309211
   72 1     3      0.00000      2.71547      1.75505     14.92985   #    H4   0.07131475   0.02911870   0.72699421
   73 1     3      0.00000      4.89139     10.52694     14.46339   #    H5   0.12560730   0.45692135   0.70428079
   74 1     3      0.00000      7.21302     11.30104     14.71197   #    H6   0.19012523   0.49358496   0.71638476
   75 1     3      0.00000      7.41968      4.60365     17.28913   #    H7   0.20059448   0.15860579   0.84187739
   76 1     3      0.00000      9.72943      5.39728     17.51617   #    H8   0.26476859   0.19629855   0.85293287
   77 1     3      0.00000     15.88211      4.59505     16.25873   #    H9   0.43845541   0.16206149   0.79170314
   78 1     3      0.00000     17.87204      2.09056     14.87567   #   H10   0.49663159   0.04561780   0.72435622
   79 1     3      0.00000     18.03598      8.08410     14.87856   #   H11   0.49651001   0.33671245   0.72449704
   80 1     3      0.00000     15.01310     10.32224     16.95005   #   H12   0.40937689   0.43763126   0.82536603
   81 1     3      0.00000     15.91202      5.69734     16.25940   #   H13   0.43842645   0.21559728   0.79173537
   82 1     3      0.00000     16.82803      4.87428     15.42109   #   H14   0.46499405   0.17877247   0.75091493
   83 1     3      0.00000     14.53197      5.68888     12.92525   #   H15   0.40047595   0.22771967   0.62938257
   84 1     3      0.00000     14.59530      6.15217     18.90940   #   H16   0.40046716   0.22772630   0.92077464
   85 1     3      0.00000     17.91406      4.01776     10.86342   #   H17   0.49724599   0.15430429   0.52898375
   86 1     3      0.00000     16.83955      4.95944     16.52041   #   H18   0.46498922   0.17877605   0.80444521
   87 1     1      0.00000     11.78945      4.85989     15.87527   #    C1   0.32342350   0.17636636   0.77303087
   88 1     1      0.00000     10.43324      4.39834     15.73448   #    C2   0.28574091   0.15447787   0.76617505
   89 1     1      0.00000     10.07894      3.57963     14.65630   #    C3   0.27669431   0.11876677   0.71367404
   90 1     1      0.00000      8.76209      3.13028     14.51875   #    C4   0.24010646   0.09745898   0.70697617
   91 1     1      0.00000      7.78075      3.49572     15.45905   #    C5   0.21204086   0.11167349   0.75276309
   92 1     1      0.00000      6.38133      3.01943     15.31371   #    C6   0.17315741   0.08908626   0.74568602
   93 1     1      0.00000      5.30062      3.88177     15.58004   #    C7   0.14207011   0.12996886   0.75865462
   94 1     1      0.00000      3.98118      3.43034     15.44263   #    C8   0.10541111   0.10855954   0.75196359
   95 1     1      0.00000      2.88259      4.32068     15.71269   #    C9   0.07379880   0.15078797   0.76511412
   96 1     1      0.00000      3.73198      2.11389     15.03863   #   C10   0.09954763   0.04613861   0.73229129
   97 1     1      0.00000      4.79741      1.25140     14.77221   #   C11   0.13020624   0.00524908   0.71931849
   98 1     1      0.00000      6.11459      1.69861     14.90754   #   C12   0.16680552   0.02646111   0.72590826
   99 1     1      0.00000      8.14753      4.31969     16.53948   #   C13   0.22143317   0.14763180   0.80537372
  100 1     1      0.00000      9.46525      4.76695     16.67543   #   C14   0.25804745   0.16884439   0.81199376
  101 1     1      0.00000     16.52205     11.50173     15.95929   #   C15   0.45105116   0.49864344   0.77712199
  102 1     1      0.00000     17.68701     11.45882     15.17642   #   C16   0.48398102   0.49950207   0.73900109
  103 1     1      0.00000      0.43862     10.23138     14.77800   #   C17   0.00074011   0.44138345   0.71960014
  104 1     1      0.00000     17.61963      9.03692     15.17602   #   C18   0.48399817   0.38187266   0.73898123
  105 1     1      0.00000     16.45379      9.06003     15.95910   #   C19   0.45105907   0.38005127   0.77711282
  106 1     1      0.00000     15.91200     10.29704     16.34613   #   C20   0.43477962   0.43867770   0.79595857
  107 1     1      0.00000      1.67143     10.20871     13.94997   #   C21   0.03556966   0.44339521   0.67928021
  108 1     1      0.00000     16.30176      4.83058     12.04320   #   C22   0.45105440   0.18934792   0.58643163
  109 1     1      0.00000     15.01749      5.39753     12.00280   #   C23   0.41455734   0.21703670   0.58446479
  110 1     1      0.00000     14.35347      5.59199     10.78019   #   C24   0.39605010   0.23107731   0.52493104
  111 1     1      0.00000     15.10113      6.00523     19.85521   #   C25   0.41456086   0.21703399   0.96683011
  112 1     1      0.00000     16.38510      5.43673     19.87520   #   C26   0.45105580   0.18934679   0.96780321
  113 1     1      0.00000     16.92358      4.45566     10.84006   #   C27   0.46909528   0.17566105   0.52784606
  114 1     1      0.00000     16.36782      5.26889     18.39478   #   C28   0.45105466   0.18675992   0.89571587
  115 1     1      0.00000     16.31894      4.99843     13.52361   #   C29   0.45105286   0.19193544   0.65851875
  116 1     1      0.00000     16.41143      7.57158     15.90600   #   C30   0.45105563   0.30795718   0.77452699
  117 1     1      0.00000     16.27533      2.69572     16.01239   #   C31   0.45105187   0.07073740   0.77970767
  118 1     4      0.00000     12.87975      5.23095     15.98846   #    N1   0.35371764   0.19396317   0.77854246
  119 1     4      0.00000      1.99955      5.03645     15.92982   #    N2   0.04838899   0.18473671   0.77568677
  120 1     5      0.00000     13.03652      6.17457     10.75331   #    N3   0.35861960   0.25947419   0.52362196
  121 1     2      0.00000      2.41242      8.70301     13.42419   #   Cl1   0.05768719   0.37223972   0.65367762
  122 1     6      0.00000      2.22135     11.28736     13.60111   #    O1   0.05024323   0.49709645   0.66229277
  123 1     6      0.00000     12.41206      6.54779     11.92157   #    O2   0.34051439   0.27320997   0.58050899
  124 1     6      0.00000     12.54851      7.14561     19.93920   #    O3   0.34196927   0.27210608   0.97091984
  125 1     7      0.00000     17.43630      5.02348     14.01102   #    O4   0.48229063   0.19131977   0.68225278
  126 1     7      0.00000     17.47361      5.18138     17.88851   #    O5   0.48229241   0.18441268   0.87106354
  127 1     7      0.00000     17.50881      7.04083     15.87880   #    O6   0.48229277   0.28228102   0.77320266
  128 1     7      0.00000     17.40109      3.16402     16.02073   #    O7   0.48229024   0.09345143   0.78011361
  129 1     7      0.00000     15.28563      7.10328     15.89766   #    O8   0.41981635   0.28524315   0.77412097
  130 1     7      0.00000     15.25043      5.24384     17.90737   #    O9   0.41981599   0.18737559   0.87198181
  131 1     7      0.00000     15.21312      5.08594     14.02986   #   O10   0.41981421   0.19428265   0.68317027
  132 1     7      0.00000     15.17792      3.22648     16.03957   #   O11   0.41981382   0.09641432   0.78103115
  133 1     8      0.00000     15.05858     14.67452      5.70341   #   Zn1   0.40989559   0.69129888   0.27772213
  134 1     8      0.00000     17.98771     14.59224      5.67857   #   Zn2   0.49221104   0.68739570   0.27651245
  135 1     3      0.00000     10.99932     12.79088      3.65173   #    H1   0.29789143   0.60752322   0.17781763
  136 1     3      0.00000      8.68734     12.01143      3.39911   #    H2   0.23364951   0.57061518   0.16551622
  137 1     3      0.00000      5.66307     14.40790      5.60833   #    H3   0.14631989   0.67870670   0.27309211
  138 1     3      0.00000      2.89525     11.25478      4.66164   #    H4   0.07131475   0.52911870   0.22699421
  139 1     3      0.00000      5.07116     20.02667      4.19519   #    H5   0.12560730   0.95692135   0.20428079
  140 1     3      0.00000      7.39280     20.80077      4.44376   #    H6   0.19012523   0.99358496   0.21638476
  141 1     3      0.00000      7.59946     14.10338      7.02093   #    H7   0.20059448   0.65860579   0.34187739
  142 1     3      0.00000      9.90921     14.89700      7.24797   #    H8   0.26476859   0.69629855   0.35293287
  143 1     3      0.00000     16.06189     14.09478      5.99053   #    H9   0.43845541   0.66206149   0.29170314
  144 1     3      0.00000     18.05182     11.59028      4.60747   #   H10   0.49663159   0.54561780   0.22435622
  145 1     3      0.00000     18.21576     17.58383      4.61036   #   H11   0.49651001   0.83671245   0.22449704
  146 1     3      0.00000     15.19288     19.82196      6.68185   #   H12   0.40937689   0.93763126   0.32536603
  147 1     3      0.00000     16.09180     15.19707      5.99119   #   H13   0.43842645   0.71559728   0.29173537
  148 1     3      0.00000     17.00781     14.37401      5.15289   #   H14   0.46499405   0.67877247   0.25091493
  149 1     3      0.00000     14.71175     15.18861      2.65705   #   H15   0.40047595   0.72771967   0.12938257
  150 1     3      0.00000     14.77508     15.65190      8.64120   #   H16   0.40046716   0.72772630   0.42077464
  151 1     3      0.00000     18.09384     13.51748      0.59522   #   H17   0.49724599   0.65430429   0.02898375
  152 1     3      0.00000     17.01933     14.45916      6.25221   #   H18   0.46498922   0.67877605   0.30444521
  153 1     1      0.00000     11.96923     14.35962      5.60707   #    C1   0.32342350   0.67636636   0.27303087
  154 1     1      0.00000     10.61302     13.89806      5.46628   #    C2   0.28574091   0.65447787   0.26617505
  155 1     1      0.00000     10.25872     13.07936      4.38810   #    C3   0.27669431   0.61876677   0.21367404
  156 1     1      0.00000      8.94187     12.63001      4.25055   #    C4   0.24010646   0.59745898   0.20697617
  157 1     1      0.00000      7.96053     12.99545      5.19084   #    C5   0.21204086   0.61167349   0.25276309
  158 1     1      0.00000      6.56110     12.51915      5.04551   #    C6   0.17315741   0.58908626   0.24568602
  159 1     1      0.00000      5.48040     13.38150      5.31184   #    C7   0.14207011   0.62996886   0.25865462
  160 1     1      0.00000      4.16095     12.93007      5.17443   #    C8   0.10541111   0.60855954   0.25196359
  161 1     1      0.00000      3.06236     13.82041      5.44449   #    C9   0.07379880   0.65078797   0.26511412
  162 1     1      0.00000      3.91175     11.61362      4.77043   #   C10   0.09954763   0.54613861   0.23229129
  163 1     1      0.00000      4.97719     10.75113      4.50401   #   C11   0.13020624   0.50524908   0.21931849
  164 1     1      0.00000      6.29437     11.19833      4.63934   #   C12   0.16680552   0.52646111   0.22590826
  165 1     1      0.00000      8.32731     13.81941      6.27128   #   C13   0.22143317   0.64763180   0.30537372
  166 1     1      0.00000      9.64503     14.26668      6.40723   #   C14   0.25804745   0.66884439   0.31199376
  167 1     1      0.00000     16.70183     21.00146      5.69109   #   C15   0.45105116   0.99864344   0.27712199
  168 1     1      0.00000     17.86679     20.95854      4.90822   #   C16   0.48398102   0.99950207   0.23900109
  169 1     1      0.00000      0.61840     19.73111      4.50980   #   C17   0.00074011   0.94138345   0.21960014
  170 1     1      0.00000     17.79941     18.53665      4.90781   #   C18   0.48399817   0.88187266   0.23898123
  171 1     1      0.00000     16.63357     18.55976      5.69090   #   C19   0.45105907   0.88005127   0.27711282
  172 1     1      0.00000     16.09178     19.79677      6.07792   #   C20   0.43477962   0.93867770   0.29595857
  173 1     1      0.00000      1.85121     19.70844      3.68177   #   C21   0.03556966   0.94339521   0.17928021
  174 1     1      0.00000     16.48154     14.33030      1.77499   #   C22   0.45105440   0.68934792   0.08643163
  175 1     1      0.00000     15.19727     14.89726      1.73460   #   C23   0.41455734   0.71703670   0.08446479
  176 1     1      0.00000     14.53325     15.09171      0.51199   #   C24   0.39605010   0.73107731   0.02493104
  177 1     1      0.00000     15.28090     15.50496      9.58701   #   C25   0.41456086   0.71703399   0.46683011
  178 1     1      0.00000     16.56488     14.93646      9.60699   #   C26   0.45105580   0.68934679   0.46780321
  179 1     1      0.00000     17.10335     13.95539      0.57186   #   C27   0.46909528   0.67566105   0.02784606
  180 1     1      0.00000     16.54760     14.76861      8.12658   #   C28   0.45105466   0.68675992   0.39571587
  181 1     1      0.00000     16.49872     14.49816      3.25540   #   C29   0.45105286   0.69193544   0.15851875
  182 1     1      0.00000     16.59121     17.07131      5.63780   #   C30   0.45105563   0.80795718   0.27452699
  183 1     1      0.00000     16.45511     12.19545      5.74419   #   C31   0.45105187   0.57073740   0.27970767
  184 1     4      0.00000     13.05953     14.73068      5.72026   #    N1   0.35371764   0.69396317   0.27854246
  185 1     4      0.00000      2.17933     14.53618      5.66161   #    N2   0.04838899   0.68473671   0.27568677
  186 1     5      0.00000     13.21630     15.67429      0.48511   #    N3   0.35861960   0.75947419   0.02362196
  187 1     2      0.00000      2.59220     18.20273      3.15599   #   Cl1   0.05768719   0.87223972   0.15367762
  188 1     6      0.00000      2.40113     20.78709      3.33291   #    O1   0.05024323   0.99709645   0.16229277
  189 1     6      0.00000     12.59184     16.04752      1.65336   #    O2   0.34051439   0.77320997   0.08050899
  190 1     6      0.00000     12.72829     16.64533      9.67100   #    O3   0.34196927   0.77210608   0.47091984
  191 1     7      0.00000     17.61608     14.52321      3.74282   #    O4   0.48229063   0.69131977   0.18225278
  192 1     7      0.00000     17.65339     14.68110      7.62031   #    O5   0.48229241   0.68441268   0.37106354
  193 1     7      0.00000     17.68859     16.54056      5.61060   #    O6   0.48229277   0.78228102   0.27320266
  194 1     7      0.00000     17.58087     12.66375      5.75253   #    O7   0.48229024   0.59345143   0.28011361
  195 1     7      0.00000     15.46541     16.60301      5.62946   #    O8   0.41981635   0.78524315   0.27412097
  196 1     7      0.00000     15.43021     14.74357      7.63917   #    O9   0.41981599   0.68737559   0.37198181
  197 1     7      0.00000     15.39290     14.58567      3.76166   #   O10   0.41981421   0.69428265   0.18317027
  198 1     7      0.00000     15.35770     12.72621      5.77137   #   O11   0.41981382   0.59641432   0.28103115
  199 1     8      0.00000     15.16778     15.46925     15.97161   #   Zn1   0.40989559   0.69129888   0.77772213
  200 1     8      0.00000     18.09691     15.38697     15.94677   #   Zn2   0.49221104   0.68739570   0.77651245
  201 1     3      0.00000     11.10852     13.58561     13.91994   #    H1   0.29789143   0.60752322   0.67781763
  202 1     3      0.00000      8.79654     12.80616     13.66731   #    H2   0.23364951   0.57061518   0.66551622
  203 1     3      0.00000      5.77227     15.20263     15.87653   #    H3   0.14631989   0.67870670   0.77309211
  204 1     3      0.00000      3.00445     12.04951     14.92985   #    H4   0.07131475   0.52911870   0.72699421
  205 1     3      0.00000      5.18036     20.82140     14.46339   #    H5   0.12560730   0.95692135   0.70428079
  206 1     3      0.00000      7.50200     21.59550     14.71197   #    H6   0.19012523   0.99358496   0.71638476
  207 1     3      0.00000      7.70866     14.89811     17.28913   #    H7   0.20059448   0.65860579   0.84187739
  208 1     3      0.00000     10.01841     15.69173     17.51617   #    H8   0.26476859   0.69629855   0.85293287
  209 1     3      0.00000     16.17109     14.88951     16.25873   #    H9   0.43845541   0.66206149   0.79170314
  210 1     3      0.00000     18.16102     12.38501     14.87567   #   H10   0.49663159   0.54561780   0.72435622
  211 1     3      0.00000     18.32496     18.37856     14.87856   #   H11   0.49651001   0.83671245   0.72449704
  212 1     3      0.00000     15.30208     20.61669     16.95005   #   H12   0.40937689   0.93763126   0.82536603
  213 1     3      0.00000     16.20100     15.99180     16.25940   #   H13   0.43842645   0.71559728   0.79173537
  214 1     3      0.00000     17.11701     15.16874     15.42109   #   H14   0.46499405   0.67877247   0.75091493
  215 1     3      0.00000     14.82095     15.98334     12.92525   #   H15   0.40047595   0.72771967   0.62938257
  216 1     3      0.00000     14.88428     16.44663     18.90940   #   H16   0.40046716   0.72772630   0.92077464
  217 1     3      0.00000     18.20304     14.31221     10.86342   #   H17   0.49724599   0.65430429   0.52898375
  218 1     3      0.00000     17.12853     15.25389     16.52041   #   H18   0.46498922   0.67877605   0.80444521
  219 1     1      0.00000     12.07843     15.15435     15.87527   #    C1   0.32342350   0.67636636   0.77303087
  220 1     1      0.00000     10.72222     14.69279     15.73448   #    C2   0.28574091   0.65447787   0.76617505
  221 1     1      0.00000     10.36792     13.87409     14.65630   #    C3   0.27669431   0.61876677   0.71367404
  222 1     1      0.00000      9.05107     13.42474     14.51875   #    C4   0.24010646   0.59745898   0.70697617
  223 1     1      0.00000      8.06973     13.79018     15.45905   #    C5   0.21204086   0.61167349   0.75276309
  224 1     1      0.00000      6.67031     13.31388     15.31371   #    C6   0.17315741   0.58908626   0.74568602