ITEM: TIMESTEP
0
ITEM: NUMBER OF ATOMS
528
ITEM: BOX BOUNDS xy xz yz pp pp pp
0.0000000000000000e+00 3.6411232570000003e+01 5.7795932999999999e-01
0.0000000000000000e+00 2.2178372660000001e+01 2.1840076000000000e-01
0.0000000000000000e+00 2.0536401850000001e+01 1.5894591499999999e+00
ITEM: ATOMS id type element x y z q
5 3 H 4.94069 4.00043 4.91711 0
6 3 H 2.76903 7.35635 3.23389 0
26 1 C 6.16349 5.64507 4.15831 0
27 1 C 4.92766 4.96749 4.43075 0
28 1 C 3.67671 5.59045 4.10036 0
29 1 C 2.37802 5.09199 4.36508 0
30 1 C 3.69551 6.8529 3.49094 0
32 1 C 6.10409 6.90207 3.52556 0
53 4 N 2.10187 3.99971 4.79659 0
4 3 H 7.25497 3.10886 3.76699 0
284 3 H 0.541627 4.51587 6.63391 0
121 2 Cl 0.671238 6.46079 0.874998 0
25 1 C 7.54667 5.12392 4.49256 0
3 3 H 9.60635 2.42323 4.05554 0
9 3 H 8.24604 7.02583 5.27159 0
10 3 H 10.5698 6.35881 5.5401 0
21 1 C 11.661 3.94159 4.87328 0
22 1 C 10.2935 4.33415 4.81095 0
23 1 C 9.31622 3.42771 4.33971 0
24 1 C 7.96277 3.81574 4.18108 0
33 1 C 8.51923 6.00995 5.01367 0
34 1 C 9.86332 5.62698 5.16776 0
52 4 N 12.5498 4.69615 5.21712 0
11 3 H 14.1466 2.68129 4.75163 0
15 3 H 14.2203 3.77418 6.9142 0
1 8 Zn 14.8384 4.20605 5.32046 0
45 1 C 15.2828 1.18414 9.6706 0
64 7 O 14.9454 3.44751 7.49709 0
17 3 H 17.3142 7.11702 2.19011 0
2 8 Zn 17.527 3.53226 5.50777 0
12 3 H 14.9431 0.868087 2.01025 0
13 3 H 17.7512 6.73368 8.72431 0
16 3 H 16.4632 3.42594 5.67959 0
19 3 H 15.9173 3.46314 0.39256 0
20 3 H 18.0082 2.87623 7.121 0
42 1 C 16.5855 5.23917 1.43924 0
43 1 C 17.1107 6.53139 1.30122 0
46 1 C 15.7896 2.48268 9.52731 0
47 1 C 16.312 4.46722 0.291131 0
48 1 C 15.9829 3.00321 8.16292 0
49 1 C 16.3656 4.71965 2.79918 0
50 1 C 16.6267 6.44885 6.35126 0
51 1 C 15.8779 1.19255 4.45821 0
59 7 O 17.3705 4.26352 3.45919 0
60 7 O 17.1655 2.92214 7.61147 0
61 7 O 17.5698 5.58208 6.2158 0
62 7 O 17.0843 1.52715 4.78522 0
63 7 O 15.4112 6.17722 6.02326 0
65 7 O 15.1999 4.80798 3.32295 0
66 7 O 14.8698 2.02317 4.59618 0
292 1 C 21.5555 1.82447 5.80214 0
293 1 C 20.2196 2.28035 5.70279 0
317 4 N 19.8606 3.39445 5.41006 0
44 1 C 17.378 7.06898 0.0321443 0
267 3 H 27.4052 4.10004 3.30266 0
268 3 H 25.0692 3.3822 3.63575 0
269 3 H 22.6859 3.64299 5.34146 0
273 3 H 26.064 2.06141 7.61303 0
274 3 H 28.375 2.76366 7.2916 0
286 1 C 28.0929 3.48947 5.26436 0
287 1 C 27.1173 3.68446 4.26093 0
288 1 C 25.7733 3.28206 4.45225 0
289 1 C 25.3691 2.67454 5.65528 0
290 1 C 24.0334 1.98791 5.80416 0
291 1 C 22.75 2.59648 5.61102 0
296 1 C 24.0814 0.626928 6.15702 0
297 1 C 26.3331 2.53741 6.67786 0
298 1 C 27.6674 2.93757 6.49012 0
309 1 C 35.1508 7.0313 9.08501 0
265 8 Zn 32.6466 3.76915 5.55971 0
266 8 Zn 35.4124 3.85722 5.16322 0
275 3 H 32.328 2.16657 6.28005 0
277 3 H 32.9294 6.83895 1.87759 0
279 3 H 32.2812 4.41544 7.18748 0
280 3 H 34.4674 3.79152 5.39801 0
283 3 H 34.1377 3.44385 0.215624 0
285 1 C 29.4628 3.76405 4.99141 0
306 1 C 33.4677 1.92273 1.60496 0
307 1 C 32.9172 0.636659 1.72627 0
310 1 C 34.589 5.7499 9.2003 0
311 1 C 33.7242 2.44784 0.32178 0
312 1 C 34.369 4.98199 7.95791 0
313 1 C 33.7003 2.68833 2.84887 0
314 1 C 33.7882 6.38502 4.32933 0
315 1 C 34.4187 1.20898 6.39105 0
316 4 N 30.3406 3.56225 5.80523 0
323 7 O 34.8982 2.99948 3.21453 0
324 7 O 35.4074 4.73561 7.20613 0
325 7 O 34.9571 5.84389 4.40783 0
326 7 O 35.4622 1.86085 5.99934 0
327 7 O 32.7177 5.76619 4.70772 0
328 7 O 33.1613 4.66151 7.57746 0
329 7 O 32.6798 2.92793 3.59389 0
330 7 O 33.2213 1.72864 6.33462 0
276 3 H 35.4553 0.709728 8.7758 0
281 3 H 32.7208 0.237743 2.71474 0
31 1 C 4.89113 7.49323 3.19759 0
140 3 H 7.01058 7.44059 3.27788 0
322 6 O 0.592273 9.62266 8.94739 0
139 3 H 4.87768 8.46469 2.71973 0
7 3 H 5.47792 8.99592 5.75955 0
137 3 H 5.17181 13.9523 5.41998 0
138 3 H 3.28305 10.0531 5.64918 0
158 1 C 6.52002 12.2415 5.57209 0
159 1 C 5.23644 12.874 5.49129 0
160 1 C 4.04223 12.0791 5.52689 0
161 1 C 2.7067 12.5464 5.49657 0
162 1 C 4.16503 10.6849 5.62116 0
163 1 C 5.41011 10.0739 5.6865 0
164 1 C 6.56893 10.8383 5.6634 0
185 4 N 2.35248 13.6973 5.42412 0
416 3 H 0.468071 13.1678 7.09243 0
384 5 N 0.37823 9.12695 10.0891 0
122 6 O 0.927448 9.04097 0.572302 0
8 3 H 7.52085 10.3225 5.71126 0
141 3 H 8.56089 11.9698 7.35287 0
153 1 C 11.9409 14.1621 5.09532 0
154 1 C 10.5733 13.8346 5.31654 0
155 1 C 9.59221 14.2155 4.37384 0
156 1 C 8.25059 13.778 4.48938 0
157 1 C 7.85429 12.9471 5.55353 0
165 1 C 8.8237 12.6187 6.52624 0
166 1 C 10.1557 13.0539 6.41409 0
184 4 N 12.8233 13.8132 5.85239 0
142 3 H 10.8679 12.7312 7.16373 0
136 3 H 7.54224 14.0317 3.71078 0
189 6 O 14.1976 8.42138 1.93156 0
385 2 Cl 14.3842 8.38286 9.76212 0
186 5 N 14.4093 8.91071 0.786666 0
386 6 O 14.7878 10.9495 10.0151 0
57 6 O 18.1809 9.09233 0.919876 0
14 3 H 16.2524 9.04129 5.41807 0
35 1 C 17.1248 10.1839 7.04242 0
36 1 C 17.7321 10.1116 8.30318 0
38 1 C 17.5757 7.69792 8.2637 0
39 1 C 16.9625 7.74118 7.00068 0
40 1 C 16.7199 8.99395 6.3943 0
133 8 Zn 15.1274 14.0681 5.63763 0
134 8 Zn 17.8855 14.1784 5.19498 0
143 3 H 14.8311 12.4618 6.35903 0
144 3 H 18.0243 11.0304 8.79904 0
148 3 H 16.9407 14.0953 5.40554 0
151 3 H 16.6573 13.7361 0.264059 0
174 1 C 15.9321 12.2424 1.65546 0
179 1 C 16.2087 12.7556 0.371584 0
181 1 C 16.1861 13.0024 2.89933 0
183 1 C 16.9301 11.52 6.43786 0
191 7 O 17.3874 13.3248 3.24379 0
194 7 O 17.961 12.18 6.02703 0
197 7 O 15.1773 13.2306 3.66415 0
198 7 O 15.7281 12.0308 6.40282 0
301 1 C 17.9497 8.87527 8.93274 0
449 4 N 20.1915 14.3509 4.84547 0
147 3 H 14.7412 14.7059 7.27093 0
176 1 C 15.007 10.2149 0.644981 0
149 3 H 15.123 10.5866 2.76629 0
175 1 C 15.3342 10.9774 1.77766 0
399 3 H 27.5142 13.7231 6.91352 0
400 3 H 25.1825 14.3816 6.45807 0
401 3 H 23.0379 14.341 4.94244 0
418 1 C 28.367 14.7826 5.22743 0
419 1 C 27.3039 14.3339 6.04375 0
420 1 C 25.9614 14.7022 5.77799 0
282 3 H 35.3694 7.42532 8.09921 0
37 1 C 32.996 8.99486 1.72196 0
41 1 C 32.4917 9.0495 0.326278 0
278 3 H 34.3521 8.88357 5.38458 0
299 1 C 33.7919 10.1587 3.72271 0
300 1 C 33.3008 10.182 2.40802 0
302 1 C 33.1684 7.76735 2.38113 0
303 1 C 33.6553 7.71458 3.69444 0
304 1 C 33.9842 8.9154 4.36604 0
397 8 Zn 32.9472 14.4687 5.2198 0
398 8 Zn 35.6355 13.8165 5.46606 0
407 3 H 32.2835 12.934 4.64296 0
408 3 H 33.1559 11.1387 1.91856 0
412 3 H 34.5695 13.7001 5.61258 0
415 3 H 34.0519 13.742 0.325727 0
443 1 C 34.4742 14.7347 0.223798 0
444 1 C 34.0265 13.2879 8.08833 0
447 1 C 34.0382 11.4631 4.38535 0
455 7 O 35.5381 14.5362 3.41197 0
456 7 O 35.2213 13.2159 7.56208 0
458 7 O 35.2348 11.8035 4.73949 0
460 7 O 32.9963 13.7171 7.39911 0
462 7 O 33.0247 12.2882 4.50115 0
411 3 H 32.2825 14.0421 6.80073 0
414 3 H 33.0369 10.9154 8.71359 0
441 1 C 33.2704 11.4939 9.59983 0
442 1 C 33.8148 12.7767 9.45442 0
417 1 C 29.7134 14.4511 5.55332 0
454 6 O 32.1967 8.93717 9.99353 0
374 1 C 35.4308 7.80621 10.2222 0
173 1 C 0.917727 19.0867 10.2658 0
453 6 O 0.820716 19.3216 0.849538 0
135 3 H 9.87393 14.8099 3.51287 0
18 3 H 15.6459 21.1887 8.7835 0
270 3 H 21.3734 20.4487 6.31073 0
152 3 H 18.6061 14.8331 6.66948 0
180 1 C 16.8366 15.288 8.0136 0
192 7 O 17.8646 15.0493 7.24494 0
196 7 O 15.6257 14.9588 7.65257 0
402 3 H 20.8385 17.9374 3.92669 0
425 1 C 20.4667 15.5049 4.62525 0
426 1 C 21.7695 17.3998 4.07675 0
424 1 C 21.7618 16.0478 4.44596 0
190 6 O 18.8488 19.8567 8.99723 0
145 3 H 15.3236 17.1556 1.96058 0
146 3 H 16.7974 19.1999 5.44641 0
150 3 H 17.9205 17.6957 8.15211 0
167 1 C 16.1943 20.4767 3.80036 0
168 1 C 15.6791 20.5001 2.49507 0
170 1 C 15.5644 18.0841 2.46293 0
171 1 C 16.0754 18.0304 3.76699 0
172 1 C 16.408 19.2322 4.43592 0
177 1 C 17.6888 17.3103 9.13831 0
178 1 C 17.0785 16.051 9.255 0
182 1 C 16.2308 16.6985 4.39416 0
193 7 O 17.4054 16.1662 4.45116 0
195 7 O 15.1718 16.069 4.78758 0
433 1 C 15.3719 19.3125 1.81057 0
437 1 C 14.8479 19.3673 0.42208 0
58 6 O 14.8297 19.198 10.0609 0
252 5 N 18.6118 19.373 10.1396 0
517 2 Cl 18.6639 16.7575 0.969152 0
518 6 O 18.8738 19.3451 0.69769 0
503 1 C 18.5252 18.277 0.0933146 0
294 1 C 22.2556 21.0621 6.15777 0
295 1 C 23.5003 20.4721 6.3304 0
403 3 H 23.5673 19.4268 6.60427 0
404 3 H 25.611 20.7168 6.29712 0
271 3 H 22.9363 19.1365 3.62022 0
272 3 H 25.0745 18.0496 3.97649 0
405 3 H 26.5131 16.5485 2.97359 0
421 1 C 25.6405 15.5246 4.68009 0
422 1 C 24.251 16.0963 4.46379 0
423 1 C 23.0182 15.3813 4.64374 0
427 1 C 22.959 18.0907 3.89948 0
428 1 C 24.1776 17.4554 4.09658 0
429 1 C 26.7051 15.9244 3.83706 0
430 1 C 28.0378 15.5684 4.10596 0
406 3 H 28.8123 15.9284 3.43965 0
169 1 C 35.946 19.1436 8.90235 0
308 1 C 33.1969 20.4526 0.592542 0
445 1 C 34.5436 14.9816 2.73114 0
409 3 H 35.7428 17.0037 8.68311 0
413 3 H 35.5593 17.3523 2.12204 0
432 1 C 35.7472 20.3825 8.27171 0
434 1 C 35.5809 17.97 8.22202 0
439 1 C 35.3361 16.7737 1.23323 0
318 5 N 32.6458 19.1278 0.732785 0
321 6 O 32.4532 18.6294 1.87712 0
438 1 C 34.7789 15.4952 1.37176 0
448 4 N 30.6626 14.8811 4.92801 0
461 7 O 33.3697 15.062 3.23312 0
410 3 H 34.3307 19.326 5.34947 0
431 1 C 35.1691 20.4603 6.99758 0
435 1 C 34.9962 18.0193 6.94558 0
436 1 C 34.7738 19.2742 6.33684 0
446 1 C 34.6784 16.7292 6.28347 0
457 7 O 35.6308 15.8692 6.16629 0
459 7 O 33.4702 16.4512 5.92972 0
253 2 Cl 32.3887 18.6689 9.73588 0
254 6 O 32.7731 21.238 9.99365 0
71 3 H 4.9886 4.43608 15.6364 0
92 1 C 6.33298 2.77663 16.0902 0
93 1 C 5.05117 3.38708 15.8966 0
94 1 C 3.85594 2.61297 16.0703 0
95 1 C 2.52198 3.06976 15.9593 0
98 1 C 6.37898 1.41161 16.4284 0
119 4 N 2.16841 4.19046 15.6866 0
350 3 H 0.273665 3.67121 17.3543 0
70 3 H 7.35421 4.23179 13.9551 0
69 3 H 9.68631 4.96584 13.6297 0
75 3 H 8.37545 2.80137 17.888 0
76 3 H 10.6818 3.51789 17.5733 0
87 1 C 11.7534 4.58843 15.2984 0
88 1 C 10.3863 4.30032 15.569 0
89 1 C 9.40497 4.52133 14.5769 0
90 1 C 8.06338 4.10943 14.764 0
91 1 C 7.66799 3.46625 15.9514 0
99 1 C 8.63782 3.30304 16.9644 0
100 1 C 9.96948 3.71196 16.7806 0
118 4 N 12.6343 4.36175 16.1019 0
81 3 H 14.5467 5.22773 17.5032 0
319 2 Cl 18.681 7.32556 11.1972 0
83 3 H 15.1307 1.01622 13.0645 0
109 1 C 15.3214 1.41898 12.0764 0
67 8 Zn 14.9388 4.57957 15.8833 0
68 8 Zn 17.7103 4.66758 15.5406 0
77 3 H 14.6192 2.97835 16.6018 0
82 3 H 16.7634 4.59174 15.7708 0
85 3 H 16.4613 4.26154 10.5688 0
86 3 H 18.4295 5.32276 17.0265 0
108 1 C 15.8345 2.72026 11.9559 0
112 1 C 16.8101 6.57916 19.5499 0
113 1 C 16.0797 3.25276 10.6739 0
114 1 C 16.6181 5.80129 18.3099 0
115 1 C 16.0383 3.49357 13.1988 0
117 1 C 16.7065 2.01847 16.7456 0
125 7 O 17.2281 3.80676 13.5874 0
126 7 O 17.6721 5.55123 17.5811 0
127 7 O 17.2564 6.65234 14.7749 0
128 7 O 17.7573 2.67158 16.3754 0
129 7 O 15.0121 6.57301 15.0295 0
130 7 O 15.4187 5.47841 17.9065 0
131 7 O 15.0024 3.73463 13.9216 0
132 7 O 15.5103 2.53902 16.6696 0
359 1 C 20.2872 5.97919 14.9652 0
383 4 N 20.0167 4.82618 15.1962 0
116 1 C 16.089 7.19179 14.6706 0
358 1 C 21.5788 6.52641 14.7775 0
78 3 H 17.6954 1.50115 19.1473 0
334 3 H 25.0191 4.87701 16.7673 0
335 3 H 22.8638 4.82484 15.2679 0
339 3 H 26.3134 7.03625 13.2644 0
340 3 H 28.6182 6.42249 13.7116 0
352 1 C 28.191 5.28125 15.5067 0
353 1 C 27.1367 4.83263 16.3341 0
354 1 C 25.7912 5.1971 16.0793 0
355 1 C 25.4591 6.01553 14.9819 0
356 1 C 24.067 6.5832 14.7765 0
357 1 C 22.8384 5.86457 14.9677 0
363 1 C 26.5147 6.41508 14.1279 0
364 1 C 27.8504 6.06276 14.3858 0
333 3 H 27.3562 4.22509 17.2039 0
373 1 C 35.1598 7.26984 11.4909 0
331 8 Zn 32.7654 4.97091 15.4771 0
332 8 Zn 35.4513 4.31307 15.7244 0
341 3 H 32.1005 3.43726 14.8995 0
342 3 H 32.9586 1.62809 12.1863 0
345 3 H 32.0972 4.54734 17.0567 0
346 3 H 34.386 4.19928 15.8692 0
349 3 H 33.8805 4.23768 10.5782 0
351 1 C 29.5406 4.95462 15.8222 0
372 1 C 34.6035 5.99074 11.6275 0
375 1 C 33.0784 1.99481 19.8568 0
376 1 C 33.6228 3.27771 19.7119 0
377 1 C 34.3026 5.23067 10.478 0
378 1 C 33.8361 3.78924 18.3466 0
379 1 C 34.3654 5.47726 12.9869 0
381 1 C 33.8519 1.96134 14.6483 0
382 4 N 30.4831 5.38481 15.1872 0
389 7 O 35.3583 5.02914 13.6685 0
390 7 O 35.0315 3.71579 17.8216 0
391 7 O 35.4496 6.36608 16.4218 0
392 7 O 35.0491 2.29987 15.0021 0
393 7 O 33.2904 6.95339 16.1871 0
394 7 O 32.8079 4.22034 17.6561 0
395 7 O 33.1916 5.56234 13.489 0
396 7 O 32.8401 2.78917 14.761 0
380 1 C 34.4994 7.22818 16.5407 0
107 1 C 0.763504 9.56349 20.523 0
387 6 O 0.646079 9.81759 11.112 0
201 3 H 9.81481 14.5087 17.1824 0
256 6 O 14.3299 9.81544 20.3045 0
371 1 C 14.861 9.8351 10.632 0
54 5 N 18.1357 9.98862 20.434 0
305 1 C 18.5625 8.82496 10.2847 0
320 6 O 18.9598 9.89757 10.8497 0
111 1 C 17.3408 7.87339 19.4327 0
336 3 H 20.6451 8.4115 14.2599 0
360 1 C 21.579 7.87756 14.4049 0
209 3 H 14.588 13.7365 14.9355 0
124 6 O 18.3442 10.4856 19.2918 0
84 3 H 17.557 8.2682 18.4466 0
79 3 H 15.2692 7.63301 12.2033 0
80 3 H 16.6413 9.69566 15.7199 0
101 1 C 16.1109 10.9618 14.0414 0
102 1 C 15.6408 10.9783 12.719 0
104 1 C 15.5025 8.5639 12.7049 0
105 1 C 15.9681 8.51799 14.0263 0
106 1 C 16.2896 9.72208 14.6955 0
210 3 H 15.5058 11.9324 12.2217 0
217 3 H 16.3171 14.5668 10.6348 0
249 1 C 16.3489 12.2694 14.7003 0
260 7 O 17.5417 12.6139 15.063 0
264 7 O 15.3327 13.0926 14.8042 0
367 1 C 15.3436 9.78777 12.0356 0
468 3 H 21.1867 10.9608 16.6157 0
491 1 C 20.6201 13.3877 16.0229 0
200 8 Zn 17.9337 14.6292 15.7875 0
214 3 H 16.8684 14.5146 15.9271 0
218 3 H 18.3639 13.9894 17.4211 0
258 7 O 17.5027 14.0328 17.883 0
515 4 N 20.2669 14.5099 15.7558 0
216 3 H 15.2269 11.7673 19.023 0
243 1 C 15.4839 12.3364 19.9088 0
244 1 C 16.0769 13.5973 19.7626 0
246 1 C 16.302 14.1017 18.3967 0
262 7 O 15.2774 14.5249 17.6956 0
361 1 C 22.7647 8.57226 14.2179 0
362 1 C 23.9868 7.94135 14.4073 0
469 3 H 22.7365 9.61746 13.9366 0
470 3 H 24.8811 8.53782 14.279 0
492 1 C 22.0711 11.5732 16.4716 0
490 1 C 21.9538 12.9284 16.1298 0
337 3 H 23.3771 9.92959 16.9036 0
338 3 H 25.4248 11.2148 16.6079 0
487 1 C 25.7689 13.7679 15.9832 0
488 1 C 24.4319 13.084 16.134 0
489 1 C 23.1506 13.6985 15.9478 0
493 1 C 23.3136 10.9779 16.6405 0
494 1 C 24.4752 11.7194 16.4743 0
495 1 C 26.7479 13.5993 16.9866 0
471 3 H 26.4923 13.098 17.9122 0
472 3 H 28.7987 13.8043 17.576 0
496 1 C 28.0797 14.0023 16.7904 0
466 3 H 25.4397 14.5371 13.9907 0
484 1 C 28.4876 14.5902 15.5755 0
486 1 C 26.156 14.4106 14.7927 0
467 3 H 23.0898 14.7471 15.6853 0
56 6 O 32.6244 11.7569 20.2539 0
55 2 Cl 32.2271 9.19045 19.99 0
347 3 H 35.38 7.84823 12.3806 0
103 1 C 35.7838 9.62893 19.1635 0
343 3 H 35.5773 7.49055 18.9345 0
366 1 C 35.5828 10.8712 18.5404 0
368 1 C 35.4133 8.4594 18.4794 0
474 3 H 35.8731 11.7845 19.0475 0
344 3 H 34.1473 9.83092 15.6213 0
365 1 C 34.9967 10.9561 17.2703 0
369 1 C 34.8212 8.51546 17.2067 0
370 1 C 34.5961 9.77367 16.6058 0
481 3 H 34.5468 14.5332 10.4944 0
509 1 C 34.1338 13.537 10.6008 0
513 1 C 34.8225 12.2967 16.6707 0
524 7 O 35.865 12.9501 16.2786 0
528 7 O 33.6247 12.816 16.618 0
473 3 H 32.7316 13.2536 16.5642 0
479 3 H 33.1295 11.3276 12.9942 0
504 1 C 33.8767 13.0124 11.8843 0
505 1 C 33.3264 11.7262 12.0057 0
506 1 C 33.0288 10.9527 10.8721 0
511 1 C 34.1083 13.7781 13.1288 0
514 4 N 30.7414 14.6422 16.0866 0
516 5 N 32.4774 9.62814 11.0127 0
519 6 O 32.285 9.12987 12.1571 0
521 7 O 35.3059 14.0917 13.4942 0
527 7 O 33.0873 14.0149 13.8749 0
96 1 C 4.55332 21.8466 16.4111 0
187 2 Cl 1.05511 17.5768 11.1583 0
188 6 O 1.28629 20.1586 10.8513 0
72 3 H 3.66998 21.2314 16.5495 0
97 1 C 5.79678 21.2549 16.5861 0
205 3 H 5.86211 20.2064 16.8482 0
73 3 H 5.22686 19.9038 13.8757 0
204 3 H 3.13354 18.6956 14.1777 0
226 1 C 4.06392 16.8097 14.6978 0
228 1 C 4.0665 18.1619 14.3291 0
229 1 C 5.25335 18.8578 14.1544 0
230 1 C 6.47412 18.2275 14.354 0
224 1 C 6.5521 16.8686 14.7211 0
225 1 C 5.32223 16.1483 14.8979 0
227 1 C 2.77129 16.2617 14.8762 0
203 3 H 5.3456 15.1082 15.1969 0
251 4 N 2.49931 15.1064 15.0936 0
482 3 H 0.925298 15.5983 16.923 0
520 6 O 0.988825 20.7108 19.2217 0
450 5 N 0.77194 20.2183 20.3644 0
206 3 H 7.90754 21.4993 16.5676 0
74 3 H 7.36896 18.8253 14.2363 0
231 1 C 9.00819 16.7063 14.1024 0
207 3 H 8.81673 17.3296 13.2382 0
208 3 H 11.1167 16.7186 13.7127 0
232 1 C 10.3411 16.3556 14.3762 0
202 3 H 7.48235 15.1581 16.7185 0
220 1 C 10.6691 15.5714 15.4991 0
221 1 C 9.6052 15.1185 16.3117 0
222 1 C 8.26244 15.4815 16.0411 0
223 1 C 7.9426 16.3025 14.9419 0
219 1 C 12.0153 15.2458 15.8301 0
250 4 N 12.9647 15.6801 15.2084 0
242 1 C 18.0014 18.0739 10.2744 0
451 2 Cl 14.6194 19.5038 20.0738 0
452 6 O 14.9473 22.0775 20.3605 0
110 1 C 15.6273 21.2263 10.9421 0
120 5 N 15.1056 19.8896 11.0809 0
123 6 O 14.9234 19.3861 12.2247 0
245 1 C 16.7748 15.5437 10.5331 0
257 7 O 17.8501 15.3441 13.7329 0
213 3 H 14.5686 14.8475 17.0916 0
255 6 O 18.8958 20.0588 11.1613 0
199 8 Zn 15.246 15.2727 15.5162 0
211 3 H 17.9822 17.796 19.0167 0
212 3 H 16.6383 20.1438 15.673 0
215 3 H 17.9622 18.1157 12.4328 0
233 1 C 17.4443 21.2655 17.3461 0
234 1 C 17.9967 21.1778 18.6309 0
236 1 C 17.8302 18.7659 18.5597 0
237 1 C 17.271 18.8248 17.2723 0
238 1 C 17.0616 20.0844 16.6686 0
240 1 C 17.1099 16.291 11.6815 0
241 1 C 17.7157 17.5472 11.5437 0
247 1 C 16.861 15.784 13.0408 0
248 1 C 16.9651 17.5388 16.5961 0
259 7 O 17.9216 16.6825 16.4847 0
261 7 O 15.761 17.2578 16.2301 0
263 7 O 15.682 15.8625 13.5309 0
499 1 C 18.1827 19.9341 19.2559 0
465 3 H 27.7718 15.2612 13.6439 0
485 1 C 27.4976 14.8167 14.5932 0
440 1 C 35.8228 18.8985 20.4999 0
348 3 H 33.4228 22.0057 18.9703 0
463 8 Zn 33.0448 14.8567 15.8439 0
480 3 H 35.7563 18.5157 18.3773 0
507 1 C 35.5393 18.123 19.364 0
388 6 O 32.5842 20.0262 20.2499 0
235 1 C 33.3751 20.0725 11.9987 0
239 1 C 32.8655 20.1218 10.6048 0
464 8 Zn 35.8092 14.947 15.4457 0
475 3 H 33.3081 17.9173 12.1633 0
476 3 H 34.7481 19.9749 15.6555 0
477 3 H 32.6691 15.5012 17.4714 0
478 3 H 34.8646 14.8717 15.6707 0
483 1 C 29.8533 14.8738 15.2924 0
497 1 C 34.1803 21.2438 13.9913 0
498 1 C 33.6832 21.2622 12.6789 0
500 1 C 33.5498 18.8476 12.6621 0
501 1 C 34.0427 18.7998 13.9733 0
502 1 C 34.3754 20.0029 14.6386 0
508 1 C 34.9763 16.8422 19.4818 0
510 1 C 34.7554 16.0723 18.2414 0
512 1 C 34.1784 17.4725 14.6123 0
522 7 O 35.7938 15.8246 17.4903 0
523 7 O 35.348 16.9336 14.6918 0
525 7 O 33.1091 16.8525 14.9919 0
526 7 O 33.5484 15.7503 17.8614 0
ITEM: TIMESTEP
2500
ITEM: NUMBER OF ATOMS
528
ITEM: BOX BOUNDS xy xz yz pp pp pp
-9.6119743829603799e-01 3.4228195107151137e+01 -1.5166602125730211e+00
4.7135483210368534e-01 2.0909457396561553e+01 -8.3121459857179336e-01
2.7904842363380844e-01 2.0257353426366265e+01 7.9189871866522432e-01
ITEM: ATOMS id type element x y z q
5 3 H 5.3143 4.97833 4.24974 0
6 3 H 3.02868 8.52041 3.32785 0
26 1 C 6.47024 6.78981 4.00583 0
27 1 C 5.27987 6.03541 4.01932 0
28 1 C 4.0341 6.66102 3.78964 0
29 1 C 2.83742 5.99285 3.96451 0
30 1 C 3.97792 8.02732 3.50432 0
32 1 C 6.3689 8.17889 3.7419 0
53 4 N 2.77705 4.80821 4.12765 0
284 3 H 1.53916 5.39066 6.08425 0
121 2 Cl 3.52635 8.45996 19.5752 0
9 3 H 8.78894 7.91834 5.01943 0
326 7 O 1.43102 2.51485 5.64771 0
276 3 H 2.46664 1.4536 8.19709 0
31 1 C 5.14081 8.78115 3.4786 0
140 3 H 7.24393 8.81096 3.69846 0
322 6 O 1.56021 9.68281 8.67224 0
139 3 H 5.08959 9.84114 3.26488 0
7 3 H 4.08949 8.03344 7.19059 0
138 3 H 2.15192 9.25418 6.2857 0
162 1 C 3.12447 9.72454 6.28102 0
163 1 C 4.20791 9.03372 6.8023 0
164 1 C 5.47787 9.59003 6.77523 0
8 3 H 6.3163 8.98639 7.10982 0
309 1 C 0.79291 7.05645 8.69718 0
324 7 O 33.6458 5.12168 6.68934 0
282 3 H 1.11085 7.4213 7.72104 0
4 3 H 7.26898 4.14764 3.49543 0
25 1 C 7.82172 6.13581 4.20854 0
24 1 C 8.05897 4.77404 3.88799 0
33 1 C 8.9099 6.88597 4.72206 0
3 3 H 9.51147 3.18804 3.73419 0
10 3 H 10.9638 6.92609 5.31934 0
21 1 C 11.6688 4.39811 4.69147 0
22 1 C 10.4098 4.98682 4.53064 0
23 1 C 9.34888 4.2221 4.01684 0
34 1 C 10.1711 6.31489 4.90322 0
52 4 N 12.5521 4.94676 5.31044 0
11 3 H 13.6478 2.85137 4.95479 0
15 3 H 13.5871 3.9621 7.07694 0
1 8 Zn 14.6648 4.15811 5.56296 0
64 7 O 14.2315 3.38861 7.58641 0
12 3 H 13.1968 0.867188 2.95325 0
19 3 H 15.9196 3.86864 0.649282 0
42 1 C 16.5296 5.60418 1.78512 0
43 1 C 16.8698 6.9554 1.73679 0
46 1 C 15.0582 2.11526 9.4158 0
47 1 C 16.24 4.88761 0.600377 0
48 1 C 15.2163 2.74769 8.11448 0
49 1 C 16.2871 4.95585 3.09572 0
50 1 C 16.4648 6.37363 6.74764 0
51 1 C 15.2985 1.4087 4.4653 0
60 7 O 16.3461 2.73921 7.50461 0
62 7 O 16.496 1.76424 4.6494 0
63 7 O 15.2879 6.04907 6.34838 0
65 7 O 15.1294 4.90947 3.52953 0
66 7 O 14.334 2.18329 4.81978 0
189 6 O 13.0665 7.80465 1.5321 0
186 5 N 13.0822 8.52495 0.505575 0
14 3 H 15.5563 8.78996 5.98803 0
35 1 C 16.4931 10.0497 7.40226 0
39 1 C 16.7578 7.67375 7.36743 0
40 1 C 16.1856 8.80193 6.87482 0
176 1 C 13.5684 9.88933 0.586889 0
149 3 H 13.4253 9.95623 2.72789 0
175 1 C 13.7226 10.5209 1.84677 0
45 1 C 13.4277 20.4014 9.51722 0
2 8 Zn 17.0357 3.65111 5.5627 0
17 3 H 17.0389 7.59434 2.5979 0
13 3 H 18.0284 6.79724 8.86822 0
16 3 H 18.0292 4.76136 6.77903 0
20 3 H 17.351 2.68332 7.37113 0
59 7 O 17.319 4.52465 3.80289 0
61 7 O 17.4791 5.54273 6.64132 0
292 1 C 20.4169 1.13345 5.96322 0
293 1 C 19.2272 1.83698 5.76938 0
317 4 N 19.2216 3.03353 5.64388 0
44 1 C 16.9798 7.59316 0.474707 0
268 3 H 23.7767 2.73336 4.08791 0
269 3 H 21.7645 2.77321 5.45313 0
273 3 H 23.4379 20.3119 7.69147 0
288 1 C 24.5246 2.43427 4.81431 0
289 1 C 24.1976 1.61895 5.91535 0
291 1 C 21.6789 1.74449 5.79227 0
297 1 C 25.1951 1.27719 6.82578 0
57 6 O 18.1332 9.49655 1.11225 0
36 1 C 17.3312 10.192 8.50974 0
38 1 C 17.6184 7.7301 8.50397 0
301 1 C 17.8407 8.99987 9.05502 0
54 5 N 17.3097 8.98303 0.31634 0
290 1 C 22.8516 1.02733 6.09459 0
267 3 H 26.1131 3.5243 3.80155 0
274 3 H 27.2197 1.4652 7.42725 0
286 1 C 26.8571 2.53746 5.57274 0
287 1 C 25.8639 2.89917 4.65309 0
298 1 C 26.5097 1.73438 6.65485 0
265 8 Zn 31.0878 3.36125 5.51095 0
266 8 Zn 33.5594 4.31628 4.71844 0
275 3 H 31.1437 1.70664 6.23603 0
277 3 H 28.9744 6.54925 2.91992 0
279 3 H 30.7768 3.95849 7.02548 0
280 3 H 32.6681 4.1673 5.08223 0
283 3 H 32.4535 3.6075 0.18708 0
285 1 C 28.202 2.93458 5.37834 0
306 1 C 31.6753 2.0186 1.3714 0
310 1 C 32.961 5.84123 8.79599 0
311 1 C 31.1945 3.40967 20.1457 0
312 1 C 32.7114 5.04241 7.59549 0
313 1 C 31.8798 2.63736 2.66618 0
314 1 C 31.3615 6.16798 4.06379 0
315 1 C 33.5102 1.65657 6.15902 0
316 4 N 29.11 2.43785 5.98635 0
323 7 O 32.9815 3.21903 2.89198 0
325 7 O 32.6336 5.95772 3.93652 0
327 7 O 30.5611 5.27122 4.58162 0
328 7 O 31.5527 4.46173 7.41848 0
329 7 O 30.9666 2.52537 3.56641 0
330 7 O 32.224 1.75993 6.18251 0
37 1 C 28.8302 8.71102 2.78594 0
278 3 H 32.4607 8.80459 4.29008 0
299 1 C 30.7126 9.96848 3.7332 0
300 1 C 29.4164 9.91064 3.17873 0
302 1 C 29.4716 7.49723 3.1012 0
303 1 C 30.7849 7.49808 3.63505 0
304 1 C 31.4585 8.7636 3.8746 0
414 3 H 30.4346 10.2227 8.055 0
454 6 O 30.0551 8.05045 9.10335 0
307 1 C 31.1405 0.72419 1.38059 0
281 3 H 29.3621 19.9054 2.32441 0
41 1 C 27.4892 8.74769 2.18904 0
349 3 H 32.0799 4.38084 10.0818 0
377 1 C 32.5549 5.35544 10.0438 0
55 2 Cl 26.3381 7.56306 2.66082 0
56 6 O 27.1273 9.70995 1.43311 0
158 1 C 5.66494 10.8565 6.28424 0
160 1 C 3.27436 11.0307 5.85609 0
137 3 H 4.69945 12.6137 5.46973 0
159 1 C 4.55891 11.6027 5.83612 0
161 1 C 2.10873 11.7282 5.55535 0
185 4 N 2.06172 12.9329 5.42905 0
141 3 H 7.57089 11.0448 8.22747 0
156 1 C 7.48733 11.8304 4.89866 0
157 1 C 7.04515 11.367 6.1439 0
136 3 H 6.85192 11.7961 4.01818 0
412 3 H 1.18575 14.9155 5.88705 0
453 6 O 1.6307 19.0325 0.803161 0
169 1 C 1.06675 19.0044 8.47791 0
409 3 H 1.08169 16.8487 8.4444 0
432 1 C 0.570994 20.1521 7.83762 0
434 1 C 0.701605 17.7288 7.92912 0
457 7 O 0.318407 15.4547 6.18952 0
450 5 N -0.0602539 19.508 19.9048 0
440 1 C -0.724238 18.1996 19.9537 0
416 3 H 33.0985 12.9157 6.90949 0
173 1 C 1.83852 19.0931 9.69048 0
188 6 O 1.69278 20.092 10.4663 0
165 1 C 7.90557 11.4036 7.26354 0
153 1 C 10.9428 12.7808 5.70994 0
154 1 C 9.63536 12.3739 5.89061 0
155 1 C 8.78851 12.3435 4.77811 0
166 1 C 9.17305 11.9437 7.14391 0
184 4 N 11.7344 12.7109 6.62098 0
142 3 H 9.79698 11.9733 8.03206 0
133 8 Zn 13.7363 13.3121 6.09267 0
134 8 Zn 16.2984 13.8755 5.31014 0
143 3 H 13.8112 11.5896 6.74758 0
148 3 H 15.4288 13.5905 5.51043 0
151 3 H 15.0475 13.4782 0.832582 0
174 1 C 14.2518 11.7973 1.92467 0
179 1 C 14.6107 12.4842 0.788942 0
181 1 C 14.5233 12.4499 3.26559 0
183 1 C 16.0468 11.2615 6.7422 0
191 7 O 15.6915 12.9109 3.47785 0
197 7 O 13.5962 12.4875 4.10927 0
198 7 O 14.8015 11.4807 6.76808 0
147 3 H 13.4393 13.8955 7.79337 0
135 3 H 9.13127 12.6587 3.79667 0
18 3 H 13.3944 19.771 8.63416 0
180 1 C 15.5726 14.6775 8.16021 0
192 7 O 16.4692 14.6944 7.24135 0
196 7 O 14.352 14.1933 8.02245 0
145 3 H 11.8431 16.2348 3.38247 0
146 3 H 14.9116 18.6681 5.13224 0
167 1 C 13.3977 19.735 3.99939 0
168 1 C 12.2164 19.6229 3.26911 0
170 1 C 12.2858 17.2127 3.54226 0
171 1 C 13.455 17.3081 4.29141 0
172 1 C 14.0242 18.5787 4.51764 0
177 1 C 16.6688 16.6414 9.24604 0
178 1 C 15.926 15.4392 9.33233 0
182 1 C 14.0132 16.0409 4.78355 0
193 7 O 15.2738 15.8136 4.66595 0
195 7 O 13.2169 15.1794 5.30717 0
433 1 C 11.6595 18.3702 3.04206 0
58 6 O 13.5108 17.7511 9.73375 0
437 1 C 10.3183 18.3158 2.45533 0
451 2 Cl 9.19852 17.0903 3.00517 0
452 6 O 10.0044 19.0672 1.4706 0
150 3 H 16.9905 16.972 8.26211 0
296 1 C 21.2384 19.3388 6.52722 0
144 3 H 17.4721 11.1695 8.9305 0
194 7 O 16.9263 12.0746 6.17758 0
449 4 N 18.269 14.5571 4.83367 0
400 3 H 22.8126 14.9879 6.51754 0
401 3 H 20.8488 14.5782 4.88203 0
420 1 C 23.6024 15.0355 5.77744 0
270 3 H 17.9051 18.9583 6.61443 0
152 3 H 17.1926 14.7995 6.60176 0
402 3 H 18.7543 18.1733 3.72932 0
425 1 C 18.3745 15.7233 4.55222 0
426 1 C 19.6575 17.5926 3.82143 0
424 1 C 19.6233 16.2825 4.28839 0
190 6 O 17.3481 19.3254 9.11365 0
517 2 Cl 17.0614 17.6444 1.85634 0
518 6 O 18.3452 19.6462 0.980652 0
503 1 C 17.5114 18.807 0.663713 0
294 1 C 18.8535 19.4545 6.43913 0
295 1 C 20.0088 18.7194 6.68872 0
403 3 H 19.9212 17.6937 7.03781 0
404 3 H 22.1334 18.7565 6.68721 0
271 3 H 20.8526 19.2105 3.07148 0
272 3 H 22.9934 18.0196 3.4142 0
405 3 H 24.2983 16.0321 2.59282 0
421 1 C 23.3754 15.5723 4.50344 0
422 1 C 22.0711 16.216 4.18698 0
423 1 C 20.8405 15.5855 4.48113 0
427 1 C 20.8591 18.1993 3.45995 0
428 1 C 22.0622 17.5177 3.64604 0
429 1 C 24.4352 15.623 3.58687 0
419 1 C 24.8906 14.6176 6.15632 0
441 1 C 30.5103 10.7173 9.01686 0
455 7 O 0.319198 14.4559 3.3357 0
413 3 H 0.071854 17.3265 2.14138 0
439 1 C 32.7077 16.8121 1.20372 0
399 3 H 25.06 14.2443 7.15984 0
418 1 C 25.9726 14.7452 5.26073 0
397 8 Zn 30.49 14.2038 5.20182 0
398 8 Zn 32.7609 13.5705 5.23037 0
407 3 H 29.5887 12.8991 4.61509 0
408 3 H 28.8574 10.83 3.03483 0
443 1 C 31.2205 15.4664 20.1409 0
444 1 C 31.0984 12.8193 7.74113 0
447 1 C 31.1526 11.3114 4.19549 0
456 7 O 32.2814 12.7855 7.23772 0
458 7 O 32.3609 11.6189 4.3841 0
460 7 O 30.1874 13.563 7.2376 0
462 7 O 30.2589 12.1831 4.49606 0
411 3 H 29.4628 13.9399 6.71705 0
442 1 C 30.8394 12.0635 9.01968 0
417 1 C 27.281 14.4046 5.63005 0
430 1 C 25.7176 15.2263 3.96594 0
406 3 H 26.507 15.3275 3.22965 0
308 1 C 28.6381 20.4337 20.154 0
445 1 C 32.1018 14.8987 2.64746 0
318 5 N 28.2552 19.0321 20.1621 0
321 6 O 28.6634 17.6991 1.23199 0
438 1 C 32.2993 15.4652 1.30983 0
448 4 N 28.2533 14.7838 4.97943 0
461 7 O 31.0101 14.7969 3.11609 0
410 3 H 31.456 18.8138 5.43714 0
431 1 C -0.278703 20.0322 6.76569 0
435 1 C 32.6727 17.6789 6.84774 0
436 1 C 32.1425 18.8511 6.28686 0
446 1 C 32.2937 16.3791 6.27053 0
459 7 O 31.0922 16.1644 5.91972 0
384 5 N 1.53985 9.12639 9.78572 0
122 6 O 3.00479 9.73095 0.40175 0
374 1 C 0.969928 7.82879 9.85547 0
107 1 C 2.26495 9.60896 19.4507 0
71 3 H 4.99995 2.90897 15.3337 0
93 1 C 4.8064 1.90761 15.6993 0
94 1 C 3.50441 1.43932 15.7576 0
95 1 C 2.41103 2.20737 15.5329 0
119 4 N 2.37938 3.40934 15.3898 0
70 3 H 6.89942 2.50576 14.1625 0
90 1 C 7.60378 2.31635 14.9582 0
91 1 C 7.22394 1.54107 16.0585 0
346 3 H 1.28497 5.21624 16.0915 0
391 7 O 0.554223 6.02615 16.1038 0
387 6 O 1.93024 9.7877 10.7924 0
103 1 C 1.36251 9.54059 18.29 0
343 3 H 1.39319 7.38145 18.0689 0
368 1 C 0.990426 8.32143 17.7084 0
350 3 H 0.580756 2.93531 16.7476 0
92 1 C 5.83451 1.10002 16.1713 0
75 3 H 6.3626 20.4308 17.99 0
366 1 C 0.85889 10.7367 17.7254 0
385 2 Cl 9.20851 8.80017 13.3008 0
386 6 O 10.4511 10.1789 11.5075 0
371 1 C 10.6324 9.36934 12.481 0
99 1 C 8.1537 1.32829 17.0918 0
69 3 H 9.12744 3.42314 13.9925 0
76 3 H 10.1557 1.65519 17.7381 0
87 1 C 11.1516 3.01159 15.6077 0
88 1 C 9.82572 2.59943 15.8479 0
89 1 C 8.86231 2.84545 14.8672 0
100 1 C 9.42266 1.86909 16.9756 0
118 4 N 11.9976 3.0801 16.4739 0
81 3 H 13.508 4.34582 17.5651 0
109 1 C 13.4165 20.5864 11.96 0
67 8 Zn 13.9955 3.87807 15.8823 0
68 8 Zn 16.5427 4.78543 15.3466 0
77 3 H 13.9601 2.21554 16.6584 0
82 3 H 15.6354 4.60024 15.5952 0
85 3 H 15.2471 3.97857 10.5134 0
108 1 C 15.1092 2.29055 11.8583 0
112 1 C 15.5359 6.32164 19.3282 0
113 1 C 15.1472 2.8977 10.5916 0
114 1 C 15.4247 5.57365 18.0963 0
115 1 C 15.1445 3.10011 13.1372 0
117 1 C 16.3197 2.16319 16.706 0
125 7 O 16.2238 3.69437 13.4841 0
126 7 O 16.4075 5.70316 17.2601 0
127 7 O 15.5709 6.4927 14.4983 0
129 7 O 13.4697 5.79216 15.0489 0
130 7 O 14.3702 4.8388 17.8114 0
131 7 O 14.1096 3.08359 13.897 0
132 7 O 15.0374 2.20491 16.5577 0
116 1 C 14.2932 6.69702 14.5873 0
256 6 O 12.2046 8.7717 19.3687 0
111 1 C 15.9392 7.64614 19.2886 0
84 3 H 16.0374 8.12026 18.3089 0
79 3 H 12.0111 7.16013 13.2052 0
80 3 H 15.4152 9.17637 14.9077 0
101 1 C 13.793 10.4505 14.2057 0
102 1 C 12.5362 10.4608 13.6057 0
104 1 C 12.5225 8.07246 13.4843 0
105 1 C 13.7533 8.01304 14.1451 0
106 1 C 14.4516 9.21803 14.4126 0
367 1 C 11.9321 9.29571 13.1805 0
319 2 Cl 20.2933 8.54705 10.266 0
86 3 H 17.2501 5.69985 16.6603 0
128 7 O 17.1394 3.02435 16.299 0
359 1 C 18.6591 6.56166 14.7283 0
383 4 N 18.5914 5.37454 14.9002 0
358 1 C 19.87 7.24859 14.5836 0
78 3 H 17.4862 1.9365 19.1061 0
334 3 H 23.1728 5.76883 16.5926 0
335 3 H 21.192 5.66217 15.2052 0
339 3 H 24.5819 7.7105 12.9966 0
354 1 C 23.9677 6.03351 15.9061 0
355 1 C 23.6985 6.85076 14.7942 0
356 1 C 22.3225 7.40097 14.5502 0
357 1 C 21.1396 6.67614 14.8305 0
363 1 C 24.7563 7.13115 13.8939 0