Created by Ryther's code on 2025-08-01 12:16:50.768356, modified by xyan11@uic.edu. 

    504 atoms
    584 bonds
    1040 angles
    1184 dihedrals
    240 impropers

    7 atom types
    15 bond types
    33 angle types
    5 dihedral types
    2 improper types

0.00000000 22.00405154 xlo xhi
0.00000000 29.98809165 ylo yhi
0.00000000 21.29857879 zlo zhi
0.03638351 -0.00365639 1.64801787 xy xz yz 

Masses 

    1    12.0107  #   C
    2    1.00794  #   H
    3    14.0067  #   N
    4    15.9994  #   O
    5    15.9994  #   O
    6      65.38  #  Zn
    7      65.38  #  Zn

Pair Coeffs

    1       0.10500      3.43085  #  C_R C_R
    2       0.04400      2.57113  #  H_ H_
    3       0.06900      3.26069  #  N_2 N_2
    4       0.06000      3.11815  #  O_2_M O_2_M
    5       0.06000      3.11815  #  O_3_M O_3_M
    6       0.06000      2.58361  #  Zn6f3 Zn6f3
    7       0.04000      2.67270  #  Zn8f4 Zn8f4

Bond Coeffs

    1      54.94924      2.40433  #  O_2_M Zn6f3 bond order=0.5
    2      24.34887      2.13340  #  H_ Zn6f3 bond order=0.5
    3      53.24274      2.42975  #  O_3_M Zn6f3 bond order=0.5
    4      55.07699      2.48452  #  N_2 Zn6f3 bond order=0.5
    5     357.44038      1.08142  #  C_R H_ bond order=1.0
    6     559.99521      0.99025  #  H_ O_3_M bond order=1.0
    7     462.65505      1.37926  #  C_R C_R bond order=1.5
    8     931.53598      1.20133  #  C_R N_2 bond order=3.0
    9     391.66951      1.45800  #  C_R C_R bond order=1.0
    10    714.55744      1.26901  #  C_R O_2_M bond order=1.5
    11    678.02790      1.29140  #  C_R O_3_M bond order=1.5
    12     43.32822      2.51269  #  O_2_M Zn8f4 bond order=0.5
    13     18.86555      2.24262  #  H_ Zn8f4 bond order=0.5
    14     42.04147      2.53807  #  O_3_M Zn8f4 bond order=0.5
    15     43.57940      2.59350  #  N_2 Zn8f4 bond order=0.5

Angle Coeffs

    1  cosine/periodic         67.02484            1            4  #  O_2_M Zn6f3 O_2_M
    2  cosine/periodic         24.38538            1            4  #  H_ Zn6f3 O_2_M
    3  cosine/periodic         65.96675            1            4  #  O_2_M Zn6f3 O_3_M
    4  cosine/periodic         70.47472            1            4  #  N_2 Zn6f3 O_2_M
    5  cosine/periodic         23.92551            1            4  #  H_ Zn6f3 O_3_M
    6  cosine/periodic         25.39208            1            4  #  H_ Zn6f3 N_2
    7  cosine/periodic         69.42201            1            4  #  N_2 Zn6f3 O_3_M
    8  cosine/periodic         25.05849            1            1  #  O_3_M H_ Zn6f3
    9  cosine/periodic        179.74893           -1            3  #  C_R C_R N_2
    10 cosine/periodic        102.18328           -1            3  #  C_R C_R C_R
    11 cosine/periodic        111.29751           -1            3  #  C_R C_R C_R
    12 cosine/periodic         57.28902           -1            3  #  C_R C_R H_
    13 cosine/periodic        137.71425           -1            3  #  C_R C_R O_2_M
    14 cosine/periodic        134.57449           -1            3  #  C_R C_R O_3_M
    15 cosine/periodic        201.38050           -1            3  #  O_2_M C_R O_3_M
    16 cosine/periodic        206.77843           -1            3  #  O_2_M C_R O_2_M
    17 fourier                 48.02888      0.36401      0.41847      0.28800  #  C_R N_2 Zn6f3
    18 cosine/periodic         21.77718           -1            3  #  C_R O_2_M Zn6f3
    19 cosine/periodic         17.67091           -1            3  #  C_R O_2_M Zn8f4
    20 fourier                 22.33312      0.30023      0.26733      0.26675  #  H_ O_3_M Zn6f3
    21 fourier                 55.81766      0.30023      0.26733      0.26675  #  C_R O_3_M Zn6f3
    22 fourier                203.65891      0.30023      0.26733      0.26675  #  C_R O_3_M H_
    23 fourier                 67.80662      0.34375      0.37500      0.28125  #  O_2_M Zn8f4 O_2_M
    24 fourier                 24.62448      0.34375      0.37500      0.28125  #  H_ Zn8f4 O_2_M
    25 fourier                 66.78648      0.34375      0.37500      0.28125  #  O_2_M Zn8f4 O_3_M
    26 fourier                 71.45583      0.34375      0.37500      0.28125  #  N_2 Zn8f4 O_2_M
    27 fourier                 24.20745      0.34375      0.37500      0.28125  #  H_ Zn8f4 O_3_M
    28 fourier                 25.79329      0.34375      0.37500      0.28125  #  H_ Zn8f4 N_2
    29 fourier                 70.41858      0.34375      0.37500      0.28125  #  N_2 Zn8f4 O_3_M
    30 cosine/periodic         20.34317            1            1  #  O_3_M H_ Zn8f4
    31 fourier                 38.69249      0.36401      0.41847      0.28800  #  C_R N_2 Zn8f4
    32 fourier                 17.70941      0.30023      0.26733      0.26675  #  H_ O_3_M Zn8f4
    33 fourier                 44.86565      0.30023      0.26733      0.26675  #  C_R O_3_M Zn8f4

Dihedral Coeffs

    1       6.73711           -1            2  #  X C_R C_R X bond order=1.5
    2      27.96100           -1            2  #  X C_R N_2 X bond order=3.0
    3       1.25000           -1            2  #  X C_R C_R X bond order=1.0
    4       6.73711           -1            2  #  X C_R O_2_M X bond order=1.5
    5       0.31957           -1            2  #  X C_R O_3_M X bond order=1.5

Improper Coeffs

    1       2.00000      1.00000     -1.00000      0.00000            1  #  C_R X X X O_2 present=False
    2      16.66667      1.00000     -1.00000      0.00000            1  #  C_R X X X O_2 present=True

Atoms # a, b, c, alpha, beta, gamma: 22.0040515430, 29.9881137199, 21.3622432009, 85.5754619646, 90.0098068237, 89.9304850513 $$$atoms$$$

    1 1     6      0.00000      3.60159     15.13597      6.59586   #   Zn1   0.16292352   0.48771354   0.30968523
    2 1     6      0.00000      6.53198     15.13339      6.59652   #   Zn2   0.29609887   0.48762607   0.30971625
    3 1     2      0.00000      9.32362      2.99141      7.89273   #    H1   0.42365339   0.07938797   0.37057529
    4 1     2      0.00000      2.57710      2.19923      8.88066   #    H2   0.11710511   0.05042252   0.41696013
    5 1     2      0.00000      3.81887      4.15137      9.71742   #    H3   0.17344124   0.11336053   0.45624722
    6 1     2      0.00000      2.95486      6.44205      9.33872   #    H4   0.13404460   0.19072401   0.43846683
    7 1     2      0.00000      0.83756      6.77887      8.09772   #    H5   0.03778767   0.20515793   0.38020020
    8 1     2      0.00000     10.58790      4.85111      7.22730   #    H6   0.48099949   0.14311960   0.33933256
    9 1     2      0.00000      4.43956     14.39875      7.64449   #    H7   0.20105943   0.46042418   0.35892014
   10 1     2      0.00000      6.16790     11.01193      4.73926   #    H8   0.27975747   0.35498149   0.22251542
   11 1     2      0.00000      6.15254      8.57113      4.73394   #    H9   0.27919388   0.27360298   0.22226556
   12 1     2      0.00000      3.96590      8.57622      8.45736   #   H10   0.17986419   0.26416545   0.39708579
   13 1     2      0.00000      3.95858     11.01663      8.45051   #   H11   0.17939694   0.34556226   0.39676414
   14 1     2      0.00000      3.00295      6.70536      7.26437   #   H12   0.13619051   0.20485671   0.34107280
   15 1     2      0.00000      3.00252      4.26454      7.27762   #   H13   0.13630578   0.12342966   0.34169513
   16 1     2      0.00000      7.10166      4.25755      5.91691   #   H14   0.32257975   0.12670740   0.27780773
   17 1     2      0.00000      7.10910      6.69793      5.92842   #   H15   0.32278367   0.20805623   0.27834813
   18 1     2      0.00000      3.35896     13.49917      2.58991   #   H16   0.15193895   0.44346848   0.12160009
   19 1     2      0.00000      3.35938     13.31088      0.15650   #   H17   0.15193893   0.44346850   0.00734808
   20 1     2      0.00000      6.75585      1.77564     10.60293   #   H18   0.30705780   0.03185338   0.49782353
   21 1     2      0.00000      6.75726      1.13986      2.38620   #   H19   0.30705777   0.03185336   0.11203571
   22 1     1      0.00000      0.98139      1.05004      6.98943   #    C1   0.04462706   0.01698082   0.32816437
   23 1     1      0.00000      0.22843      2.18517      7.48297   #    C2   0.01035098   0.05356006   0.35133636
   24 1     1      0.00000      9.88539      2.16010      7.48690   #    C3   0.44922444   0.05271371   0.35152122
   25 1     1      0.00000      9.12432      1.03745      6.99290   #    C4   0.41469244   0.01655204   0.32832718
   26 1     1      0.00000      0.97227      3.36582      7.99932   #    C5   0.04409683   0.09159823   0.37558020
   27 1     1      0.00000      2.18396      3.19124      8.69623   #    C6   0.09918162   0.08397832   0.40830110
   28 1     1      0.00000      2.89180      4.29665      9.17796   #    C7   0.13129493   0.11959693   0.43091909
   29 1     1      0.00000      2.40462      5.58782      8.96587   #    C8   0.10908092   0.16320051   0.42096090
   30 1     1      0.00000      1.20968      5.77695      8.26883   #    C9   0.05475636   0.17130583   0.38823372
   31 1     1      0.00000      0.49665      4.67556      7.78536   #   C10   0.02240704   0.13582564   0.36553426
   32 1     1      0.00000      5.06334     11.20675      6.59518   #   C11   0.22957126   0.35668959   0.30965340
   33 1     1      0.00000      5.68336     10.49175      5.55615   #   C12   0.25777538   0.33552745   0.26086941
   34 1     1      0.00000      5.68153      9.09399      5.55689   #   C13   0.25776939   0.28891511   0.26090436
   35 1     1      0.00000      5.05888      8.38042      6.59573   #   C14   0.22952443   0.26243954   0.30967956
   36 1     1      0.00000      4.43865      9.09692      7.63404   #   C15   0.20131033   0.28365329   0.35842947
   37 1     1      0.00000      4.44144     10.49473      7.63389   #   C16   0.20135999   0.33026585   0.35842242
   38 1     1      0.00000      5.05636      6.89490      6.59631   #   C17   0.22949175   0.21290116   0.30970668
   39 1     1      0.00000      3.90736      6.18197      6.98047   #   C18   0.17731779   0.18813613   0.32774357
   40 1     1      0.00000      3.90490      4.78421      6.98044   #   C19   0.17728345   0.14152581   0.32774212
   41 1     1      0.00000      5.05217      4.06857      6.59720   #   C20   0.22945696   0.11865024   0.30974838
   42 1     1      0.00000      6.20088      4.77995      6.21373   #   C21   0.28161785   0.14336196   0.29174411
   43 1     1      0.00000      6.20296      6.17776      6.21270   #   C22   0.28163520   0.18997683   0.29169554
   44 1     1      0.00000      5.06752     14.83166      2.67996   #   C23   0.22951412   0.48766990   0.12582827
   45 1     1      0.00000      4.10983     14.03795      2.02544   #   C24   0.18602655   0.46289120   0.09509721
   46 1     1      0.00000      4.11007     13.93010      0.63163   #   C25   0.18602651   0.46289123   0.02965614
   47 1     1      0.00000      5.06618     15.43771     10.51241   #   C26   0.22951407   0.48766992   0.49357349
   48 1     1      0.00000      6.00672      0.41275      0.51765   #   C27   0.27296574   0.01242810   0.02430424
   49 1     1      0.00000      6.00648      0.52060      1.91156   #   C28   0.27296573   0.01242809   0.08975039
   50 1     1      0.00000      5.06636     15.26986      9.03190   #   C29   0.22951351   0.48589300   0.42406113
   51 1     1      0.00000      5.06725     14.99951      4.16047   #   C30   0.22951033   0.48944717   0.19534041
   52 1     1      0.00000      5.05078      2.57953      6.54367   #   C31   0.22947543   0.06913409   0.30723527
   53 1     1      0.00000      5.06463     12.69578      6.64870   #   C32   0.22954837   0.40620554   0.31216631
   54 1     3      0.00000      1.60168     15.13772      6.59530   #    N1   0.07203515   0.48777357   0.30965900
   55 1     3      0.00000      8.53189     15.13174      6.59697   #    N2   0.38698724   0.48756968   0.30973736
   56 1     4      0.00000      6.17923     15.05481      4.65760   #    O1   0.28004841   0.49000849   0.21868109
   57 1     4      0.00000      6.17848     15.21260      8.53527   #    O2   0.28005244   0.48526495   0.40074382
   58 1     4      0.00000      6.16239      2.07883      6.52601   #    O3   0.28002100   0.05248319   0.30640611
   59 1     4      0.00000      6.17713     13.19453      6.66685   #    O4   0.28007980   0.42279026   0.31301876
   60 1     4      0.00000      3.93825      2.08078      6.52552   #    O5   0.17894255   0.05254935   0.30638272
   61 1     5      0.00000      3.95435     15.21456      8.53478   #    O6   0.17897398   0.48533165   0.40072040
   62 1     4      0.00000      3.95510     15.05677      4.65708   #    O7   0.17896995   0.49007517   0.21865692
   63 1     4      0.00000      3.95300     13.19649      6.66634   #    O8   0.17900134   0.42285694   0.31299463
   64 1     7      0.00000      3.59976     15.95997     17.24514   #   Zn1   0.16292352   0.48771354   0.80968523
   65 1     6      0.00000      6.53016     15.95740     17.24581   #   Zn2   0.29609887   0.48762607   0.80971625
   66 1     2      0.00000      9.32180      3.81542     18.54202   #    H1   0.42365339   0.07938797   0.87057529
   67 1     2      0.00000      2.57527      3.02324     19.52995   #    H2   0.11710511   0.05042252   0.91696013
   68 1     2      0.00000      3.81704      4.97538     20.36671   #    H3   0.17344124   0.11336053   0.95624722
   69 1     2      0.00000      2.95303      7.26606     19.98801   #    H4   0.13404460   0.19072401   0.93846683
   70 1     2      0.00000      0.83573      7.60288     18.74701   #    H5   0.03778767   0.20515793   0.88020020
   71 1     2      0.00000     10.58608      5.67512     17.87659   #    H6   0.48099949   0.14311960   0.83933256
   72 1     2      0.00000      4.43773     15.22276     18.29378   #    H7   0.20105943   0.46042418   0.85892014
   73 1     2      0.00000      6.16607     11.83594     15.38855   #    H8   0.27975747   0.35498149   0.72251542
   74 1     2      0.00000      6.15071      9.39514     15.38323   #    H9   0.27919388   0.27360298   0.72226556
   75 1     2      0.00000      3.96407      9.40023     19.10665   #   H10   0.17986419   0.26416545   0.89708579
   76 1     2      0.00000      3.95675     11.84064     19.09980   #   H11   0.17939694   0.34556226   0.89676414
   77 1     2      0.00000      3.00112      7.52936     17.91366   #   H12   0.13619051   0.20485671   0.84107280
   78 1     2      0.00000      3.00069      5.08855     17.92691   #   H13   0.13630578   0.12342966   0.84169513
   79 1     2      0.00000      7.09983      5.08155     16.56620   #   H14   0.32257975   0.12670740   0.77780773
   80 1     2      0.00000      7.10727      7.52194     16.57771   #   H15   0.32278367   0.20805623   0.77834813
   81 1     2      0.00000      3.35713     14.32318     13.23920   #   H16   0.15193895   0.44346848   0.62160009
   82 1     2      0.00000      3.35755     14.13489     10.80579   #   H17   0.15193893   0.44346850   0.50734808
   83 1     2      0.00000      6.75403      2.59965     21.25222   #   H18   0.30705780   0.03185338   0.99782353
   84 1     2      0.00000      6.75544      1.96387     13.03549   #   H19   0.30705777   0.03185336   0.61203571
   85 1     1      0.00000      0.97957      1.87405     17.63872   #    C1   0.04462706   0.01698082   0.82816437
   86 1     1      0.00000      0.22660      3.00918     18.13225   #    C2   0.01035098   0.05356006   0.85133636
   87 1     1      0.00000      9.88356      2.98411     18.13619   #    C3   0.44922444   0.05271371   0.85152122
   88 1     1      0.00000      9.12249      1.86146     17.64219   #    C4   0.41469244   0.01655204   0.82832718
   89 1     1      0.00000      0.97044      4.18983     18.64861   #    C5   0.04409683   0.09159823   0.87558020
   90 1     1      0.00000      2.18213      4.01525     19.34552   #    C6   0.09918162   0.08397832   0.90830110
   91 1     1      0.00000      2.88997      5.12066     19.82725   #    C7   0.13129493   0.11959693   0.93091909
   92 1     1      0.00000      2.40279      6.41183     19.61516   #    C8   0.10908092   0.16320051   0.92096090
   93 1     1      0.00000      1.20785      6.60096     18.91812   #    C9   0.05475636   0.17130583   0.88823372
   94 1     1      0.00000      0.49482      5.49957     18.43465   #   C10   0.02240704   0.13582564   0.86553426
   95 1     1      0.00000      5.06152     12.03076     17.24447   #   C11   0.22957126   0.35668959   0.80965340
   96 1     1      0.00000      5.68153     11.31575     16.20544   #   C12   0.25777538   0.33552745   0.76086941
   97 1     1      0.00000      5.67970      9.91800     16.20618   #   C13   0.25776939   0.28891511   0.76090436
   98 1     1      0.00000      5.05706      9.20443     17.24502   #   C14   0.22952443   0.26243954   0.80967956
   99 1     1      0.00000      4.43682      9.92093     18.28333   #   C15   0.20131033   0.28365329   0.85842947
  100 1     1      0.00000      4.43961     11.31874     18.28318   #   C16   0.20135999   0.33026585   0.85842242
  101 1     1      0.00000      5.05453      7.71891     17.24560   #   C17   0.22949175   0.21290116   0.80970668
  102 1     1      0.00000      3.90553      7.00598     17.62976   #   C18   0.17731779   0.18813613   0.82774357
  103 1     1      0.00000      3.90308      5.60822     17.62973   #   C19   0.17728345   0.14152581   0.82774212
  104 1     1      0.00000      5.05034      4.89257     17.24649   #   C20   0.22945696   0.11865024   0.80974838
  105 1     1      0.00000      6.19905      5.60396     16.86302   #   C21   0.28161785   0.14336196   0.79174411
  106 1     1      0.00000      6.20113      7.00177     16.86199   #   C22   0.28163520   0.18997683   0.79169554
  107 1     1      0.00000      5.06570     15.65567     13.32925   #   C23   0.22951412   0.48766990   0.62582827
  108 1     1      0.00000      4.10800     14.86195     12.67472   #   C24   0.18602655   0.46289120   0.59509721
  109 1     1      0.00000      4.10824     14.75411     11.28092   #   C25   0.18602651   0.46289123   0.52965614
  110 1     1      0.00000      5.06435     16.26172     21.16170   #   C26   0.22951407   0.48766992   0.99357349
  111 1     1      0.00000      6.00489      1.23676     11.16694   #   C27   0.27296574   0.01242810   0.52430424
  112 1     1      0.00000      6.00465      1.34461     12.56085   #   C28   0.27296573   0.01242809   0.58975039
  113 1     1      0.00000      5.06453     16.09387     19.68119   #   C29   0.22951351   0.48589300   0.92406113
  114 1     1      0.00000      5.06542     15.82352     14.80976   #   C30   0.22951033   0.48944717   0.69534041
  115 1     1      0.00000      5.04895      3.40354     17.19296   #   C31   0.22947543   0.06913409   0.80723527
  116 1     1      0.00000      5.06280     13.51979     17.29799   #   C32   0.22954837   0.40620554   0.81216631
  117 1     3      0.00000      1.59985     15.96173     17.24459   #    N1   0.07203515   0.48777357   0.80965900
  118 1     3      0.00000      8.53007     15.95575     17.24625   #    N2   0.38698724   0.48756968   0.80973736
  119 1     4      0.00000      6.17740     15.87882     15.30689   #    O1   0.28004841   0.49000849   0.71868109
  120 1     4      0.00000      6.17665     16.03661     19.18456   #    O2   0.28005244   0.48526495   0.90074382
  121 1     4      0.00000      6.16056      2.90284     17.17530   #    O3   0.28002100   0.05248319   0.80640611
  122 1     4      0.00000      6.17530     14.01854     17.31614   #    O4   0.28007980   0.42279026   0.81301876
  123 1     4      0.00000      3.93642      2.90479     17.17481   #    O5   0.17894255   0.05254935   0.80638272
  124 1     5      0.00000      3.95252     16.03857     19.18406   #    O6   0.17897398   0.48533165   0.90072040
  125 1     4      0.00000      3.95327     15.88078     15.30637   #    O7   0.17896995   0.49007517   0.71865692
  126 1     4      0.00000      3.95117     14.02050     17.31563   #    O8   0.17900134   0.42285694   0.81299463
  127 1     7      0.00000      3.61978     30.13001      6.59586   #   Zn1   0.16292352   0.98771354   0.30968523
  128 1     6      0.00000      6.55018     30.12744      6.59652   #   Zn2   0.29609887   0.98762607   0.30971625
  129 1     2      0.00000      9.34182     17.98545      7.89273   #    H1   0.42365339   0.57938797   0.37057529
  130 1     2      0.00000      2.59529     17.19328      8.88066   #    H2   0.11710511   0.55042252   0.41696013
  131 1     2      0.00000      3.83706     19.14542      9.71742   #    H3   0.17344124   0.61336053   0.45624722
  132 1     2      0.00000      2.97305     21.43610      9.33872   #    H4   0.13404460   0.69072401   0.43846683
  133 1     2      0.00000      0.85575     21.77292      8.09772   #    H5   0.03778767   0.70515793   0.38020020
  134 1     2      0.00000     10.60610     19.84516      7.22730   #    H6   0.48099949   0.64311960   0.33933256
  135 1     2      0.00000      4.45775     29.39280      7.64449   #    H7   0.20105943   0.96042418   0.35892014
  136 1     2      0.00000      6.18609     26.00597      4.73926   #    H8   0.27975747   0.85498149   0.22251542
  137 1     2      0.00000      6.17073     23.56517      4.73394   #    H9   0.27919388   0.77360298   0.22226556
  138 1     2      0.00000      3.98409     23.57027      8.45736   #   H10   0.17986419   0.76416545   0.39708579
  139 1     2      0.00000      3.97677     26.01067      8.45051   #   H11   0.17939694   0.84556226   0.39676414
  140 1     2      0.00000      3.02114     21.69940      7.26437   #   H12   0.13619051   0.70485671   0.34107280
  141 1     2      0.00000      3.02071     19.25859      7.27762   #   H13   0.13630578   0.62342966   0.34169513
  142 1     2      0.00000      7.11985     19.25159      5.91691   #   H14   0.32257975   0.62670740   0.27780773
  143 1     2      0.00000      7.12729     21.69198      5.92842   #   H15   0.32278367   0.70805623   0.27834813
  144 1     2      0.00000      3.37715     28.49322      2.58991   #   H16   0.15193895   0.94346848   0.12160009
  145 1     2      0.00000      3.37757     28.30493      0.15650   #   H17   0.15193893   0.94346850   0.00734808
  146 1     2      0.00000      6.77405     16.76969     10.60293   #   H18   0.30705780   0.53185338   0.49782353
  147 1     2      0.00000      6.77546     16.13390      2.38620   #   H19   0.30705777   0.53185336   0.11203571
  148 1     1      0.00000      0.99959     16.04409      6.98943   #    C1   0.04462706   0.51698082   0.32816437
  149 1     1      0.00000      0.24662     17.17922      7.48297   #    C2   0.01035098   0.55356006   0.35133636
  150 1     1      0.00000      9.90358     17.15414      7.48690   #    C3   0.44922444   0.55271371   0.35152122
  151 1     1      0.00000      9.14251     16.03150      6.99290   #    C4   0.41469244   0.51655204   0.32832718
  152 1     1      0.00000      0.99046     18.35986      7.99932   #    C5   0.04409683   0.59159823   0.37558020
  153 1     1      0.00000      2.20215     18.18528      8.69623   #    C6   0.09918162   0.58397832   0.40830110
  154 1     1      0.00000      2.90999     19.29069      9.17796   #    C7   0.13129493   0.61959693   0.43091909
  155 1     1      0.00000      2.42281     20.58187      8.96587   #    C8   0.10908092   0.66320051   0.42096090
  156 1     1      0.00000      1.22787     20.77100      8.26883   #    C9   0.05475636   0.67130583   0.38823372
  157 1     1      0.00000      0.51484     19.66960      7.78536   #   C10   0.02240704   0.63582564   0.36553426
  158 1     1      0.00000      5.08153     26.20080      6.59518   #   C11   0.22957126   0.85668959   0.30965340
  159 1     1      0.00000      5.70155     25.48579      5.55615   #   C12   0.25777538   0.83552745   0.26086941
  160 1     1      0.00000      5.69972     24.08803      5.55689   #   C13   0.25776939   0.78891511   0.26090436
  161 1     1      0.00000      5.07708     23.37446      6.59573   #   C14   0.22952443   0.76243954   0.30967956
  162 1     1      0.00000      4.45684     24.09096      7.63404   #   C15   0.20131033   0.78365329   0.35842947
  163 1     1      0.00000      4.45963     25.48877      7.63389   #   C16   0.20135999   0.83026585   0.35842242
  164 1     1      0.00000      5.07455     21.88895      6.59631   #   C17   0.22949175   0.71290116   0.30970668
  165 1     1      0.00000      3.92555     21.17602      6.98047   #   C18   0.17731779   0.68813613   0.32774357
  166 1     1      0.00000      3.92310     19.77826      6.98044   #   C19   0.17728345   0.64152581   0.32774212
  167 1     1      0.00000      5.07036     19.06261      6.59720   #   C20   0.22945696   0.61865024   0.30974838
  168 1     1      0.00000      6.21907     19.77400      6.21373   #   C21   0.28161785   0.64336196   0.29174411
  169 1     1      0.00000      6.22115     21.17181      6.21270   #   C22   0.28163520   0.68997683   0.29169554
  170 1     1      0.00000      5.08572     29.82570      2.67996   #   C23   0.22951412   0.98766990   0.12582827
  171 1     1      0.00000      4.12802     29.03199      2.02544   #   C24   0.18602655   0.96289120   0.09509721
  172 1     1      0.00000      4.12826     28.92414      0.63163   #   C25   0.18602651   0.96289123   0.02965614
  173 1     1      0.00000      5.08437     30.43175     10.51241   #   C26   0.22951407   0.98766992   0.49357349
  174 1     1      0.00000      6.02491     15.40679      0.51765   #   C27   0.27296574   0.51242810   0.02430424
  175 1     1      0.00000      6.02467     15.51465      1.91156   #   C28   0.27296573   0.51242809   0.08975039
  176 1     1      0.00000      5.08455     30.26391      9.03190   #   C29   0.22951351   0.98589300   0.42406113
  177 1     1      0.00000      5.08544     29.99356      4.16047   #   C30   0.22951033   0.98944717   0.19534041
  178 1     1      0.00000      5.06897     17.57357      6.54367   #   C31   0.22947543   0.56913409   0.30723527
  179 1     1      0.00000      5.08282     27.68983      6.64870   #   C32   0.22954837   0.90620554   0.31216631
  180 1     3      0.00000      1.61987     30.13177      6.59530   #    N1   0.07203515   0.98777357   0.30965900
  181 1     3      0.00000      8.55009     30.12578      6.59697   #    N2   0.38698724   0.98756968   0.30973736
  182 1     4      0.00000      6.19742     30.04886      4.65760   #    O1   0.28004841   0.99000849   0.21868109
  183 1     4      0.00000      6.19667     30.20665      8.53527   #    O2   0.28005244   0.98526495   0.40074382
  184 1     4      0.00000      6.18058     17.07288      6.52601   #    O3   0.28002100   0.55248319   0.30640611
  185 1     4      0.00000      6.19532     28.18858      6.66685   #    O4   0.28007980   0.92279026   0.31301876
  186 1     4      0.00000      3.95644     17.07482      6.52552   #    O5   0.17894255   0.55254935   0.30638272
  187 1     5      0.00000      3.97254     30.20861      8.53478   #    O6   0.17897398   0.98533165   0.40072040
  188 1     4      0.00000      3.97329     30.05082      4.65708   #    O7   0.17896995   0.99007517   0.21865692
  189 1     4      0.00000      3.97119     28.19054      6.66634   #    O8   0.17900134   0.92285694   0.31299463
  190 1     7      0.00000      3.61795     30.95402     17.24514   #   Zn1   0.16292352   0.98771354   0.80968523
  191 1     6      0.00000      6.54835     30.95145     17.24581   #   Zn2   0.29609887   0.98762607   0.80971625
  192 1     2      0.00000      9.33999     18.80946     18.54202   #    H1   0.42365339   0.57938797   0.87057529
  193 1     2      0.00000      2.59346     18.01729     19.52995   #    H2   0.11710511   0.55042252   0.91696013
  194 1     2      0.00000      3.83523     19.96942     20.36671   #    H3   0.17344124   0.61336053   0.95624722
  195 1     2      0.00000      2.97122     22.26010     19.98801   #    H4   0.13404460   0.69072401   0.93846683
  196 1     2      0.00000      0.85392     22.59693     18.74701   #    H5   0.03778767   0.70515793   0.88020020
  197 1     2      0.00000     10.60427     20.66916     17.87659   #    H6   0.48099949   0.64311960   0.83933256
  198 1     2      0.00000      4.45593     30.21680     18.29378   #    H7   0.20105943   0.96042418   0.85892014
  199 1     2      0.00000      6.18426     26.82998     15.38855   #    H8   0.27975747   0.85498149   0.72251542
  200 1     2      0.00000      6.16890     24.38918     15.38323   #    H9   0.27919388   0.77360298   0.72226556
  201 1     2      0.00000      3.98226     24.39428     19.10665   #   H10   0.17986419   0.76416545   0.89708579
  202 1     2      0.00000      3.97495     26.83468     19.09980   #   H11   0.17939694   0.84556226   0.89676414
  203 1     2      0.00000      3.01931     22.52341     17.91366   #   H12   0.13619051   0.70485671   0.84107280
  204 1     2      0.00000      3.01888     20.08259     17.92691   #   H13   0.13630578   0.62342966   0.84169513
  205 1     2      0.00000      7.11802     20.07560     16.56620   #   H14   0.32257975   0.62670740   0.77780773
  206 1     2      0.00000      7.12546     22.51599     16.57771   #   H15   0.32278367   0.70805623   0.77834813
  207 1     2      0.00000      3.37533     29.31723     13.23920   #   H16   0.15193895   0.94346848   0.62160009
  208 1     2      0.00000      3.37574     29.12894     10.80579   #   H17   0.15193893   0.94346850   0.50734808
  209 1     2      0.00000      6.77222     17.59370     21.25222   #   H18   0.30705780   0.53185338   0.99782353
  210 1     2      0.00000      6.77363     16.95791     13.03549   #   H19   0.30705777   0.53185336   0.61203571
  211 1     1      0.00000      0.99776     16.86810     17.63872   #    C1   0.04462706   0.51698082   0.82816437