ITEM: TIMESTEP
0
ITEM: NUMBER OF ATOMS
504
ITEM: BOX BOUNDS xy xz yz pp pp pp
-3.6563899999999998e-03 2.2040435049999999e+01 3.6383510000000001e-02
0.0000000000000000e+00 3.1636109520000002e+01 -3.6563899999999998e-03
0.0000000000000000e+00 2.1298578790000001e+01 1.6480178700000001e+00
ITEM: ATOMS id type element x y z q
4 2 H 2.26638 1.67705 9.64335 0
7 2 H 0.915129 6.4374 9.26689 0
14 2 H 2.46557 6.81512 6.21506 0
15 2 H 2.69278 4.43675 6.54973 0
16 2 H 6.8107 4.9715 7.76638 0
17 2 H 6.57338 7.38397 7.45713 0
20 2 H 7.25454 0.811371 10.3609 0
21 2 H 7.26287 1.09827 1.47497 0
22 1 C 1.05422 1.18155 7.17994 0
23 1 C 0.198627 2.03681 7.88613 0
26 1 C 0.899103 3.06904 8.69687 0
27 1 C 1.95893 2.71122 9.55264 0
28 1 C 2.63078 3.6874 10.2949 0
29 1 C 2.25341 5.02876 10.193 0
30 1 C 1.20288 5.39704 9.34935 0
31 1 C 0.528585 4.42544 8.60363 0
38 1 C 4.5055 7.26414 6.80164 0
39 1 C 3.40312 6.43108 6.59824 0
40 1 C 3.5325 5.07525 6.79704 0
41 1 C 4.76632 4.54443 7.19426 0
42 1 C 5.85019 5.37906 7.47352 0
43 1 C 5.71669 6.74403 7.28511 0
49 1 C 6.32931 0.620157 1.20382 0
52 1 C 4.95251 3.12403 7.07831 0
58 4 O 6.07619 2.6808 6.70099 0
60 4 O 3.9325 2.38482 7.13001 0
128 6 Zn 6.58077 0.571645 6.03784 0
170 1 C 5.25073 0.571175 2.09332 0
177 1 C 5.4452 0.935518 3.48358 0
182 4 O 6.60346 1.26161 3.89665 0
188 4 O 4.51446 0.654403 4.30214 0
3 2 H 9.5144 3.37262 8.54059 0
8 2 H 11.0788 5.18313 7.83586 0
24 1 C 9.90846 2.59047 7.90317 0
25 1 C 8.89571 1.88847 7.25065 0
256 2 H 13.3526 1.98237 9.6428 0
258 2 H 14.2307 6.066 10.6039 0
259 2 H 12.4244 6.82482 9.08652 0
266 2 H 14.0961 6.94351 5.80167 0
267 2 H 14.0943 4.5635 6.22291 0
274 1 C 12.1042 1.50537 7.22111 0
275 1 C 11.3183 2.46144 7.87564 0
278 1 C 12.1054 3.45494 8.64947 0
279 1 C 13.1367 3.03585 9.51348 0
280 1 C 13.8972 3.97507 10.2153 0
281 1 C 13.6395 5.33956 10.0621 0
282 1 C 12.62 5.76733 9.20799 0
283 1 C 11.8557 4.83226 8.50413 0
181 3 N 9.04972 1.03068 6.42628 0
432 3 N 11.7271 0.582368 6.55353 0
320 2 H 14.2388 2.61723 0.0551008 0
255 2 H 20.3421 2.80509 8.5625 0
260 2 H 21.7309 4.73414 7.94379 0
268 2 H 18.2327 4.76288 7.47134 0
269 2 H 18.2256 7.17184 7.0853 0
272 2 H 18.2068 1.05393 10.39 0
273 2 H 18.2237 0.772201 1.59456 0
276 1 C 20.79 2.05923 7.91675 0
277 1 C 19.8173 1.31803 7.2515 0
290 1 C 16.1667 7.2242 6.39509 0
291 1 C 14.9924 6.48694 6.20298 0
292 1 C 14.9901 5.13036 6.44867 0
293 1 C 16.166 4.50245 6.87501 0
294 1 C 17.319 5.24494 7.14358 0
295 1 C 17.3168 6.60906 6.91146 0
301 1 C 17.2961 0.300831 1.29215 0
304 1 C 16.2284 3.06546 6.83493 0
310 4 O 17.3297 2.50685 6.56722 0
312 4 O 15.1524 2.40646 6.88046 0
422 1 C 16.2194 0.181053 2.17488 0
429 1 C 16.396 0.498665 3.57157 0
434 4 O 17.5634 0.67186 4.0309 0
440 4 O 15.4011 0.379306 4.34649 0
1 6 Zn 3.28493 15.6025 6.24887 0
2 6 Zn 5.60462 15.5443 6.24007 0
9 2 H 3.38947 15.2042 7.79705 0
10 2 H 6.26892 11.0632 4.9214 0
11 2 H 6.35849 8.68867 5.45457 0
12 2 H 2.43823 8.94523 7.26963 0
13 2 H 2.33436 11.3043 6.70689 0
18 2 H 2.71261 14.6491 2.01992 0
19 2 H 3.3358 13.4283 0.0254522 0
32 1 C 4.29074 11.3418 5.7634 0
33 1 C 5.41769 10.5975 5.40385 0
34 1 C 5.47501 9.25446 5.72473 0
35 1 C 4.4141 8.65932 6.4223 0
36 1 C 3.26591 9.39427 6.73413 0
37 1 C 3.20268 10.7329 6.40157 0
45 1 C 3.62448 14.9266 1.50413 0
46 1 C 3.99585 14.2086 0.383965 0
47 1 C 4.90139 15.3047 10.5504 0
50 1 C 4.64463 15.0786 9.14529 0
53 1 C 4.32542 12.7788 5.68047 0
54 3 N 0.66844 15.7375 6.44969 0
57 4 O 5.63934 15.1227 8.35931 0
59 4 O 5.45125 13.3608 5.76168 0
61 5 O 3.42302 14.9299 8.72604 0
63 4 O 3.23712 13.4297 5.72746 0
174 1 C 6.0752 15.4652 0.263768 0
146 2 H 7.00336 15.8019 10.2661 0
55 3 N 8.27183 15.538 6.26181 0
253 7 Zn 13.9867 15.1151 6.39825 0
270 2 H 14.2662 14.5795 2.24472 0
271 2 H 14.5737 13.5708 0.07249 0
306 3 N 11.2178 15.1802 6.32127 0
261 2 H 14.5665 14.3233 7.80268 0
264 2 H 14.2332 9.06591 6.78233 0
265 2 H 14.3189 11.403 6.20742 0
254 6 Zn 17.1987 15.2494 6.18049 0
262 2 H 18.2925 10.8761 4.56137 0
263 2 H 18.181 8.50115 5.10445 0
284 1 C 16.3105 11.3099 5.32724 0
285 1 C 17.3901 10.4794 5.01033 0
286 1 C 17.3333 9.13352 5.33845 0
287 1 C 16.205 8.62063 5.99865 0
288 1 C 15.1103 9.44336 6.27065 0
289 1 C 15.1596 10.778 5.93177 0
296 1 C 16.1812 15.6147 2.24282 0
297 1 C 15.1714 14.8078 1.69544 0
298 1 C 15.3547 14.2121 0.462987 0
299 1 C 16.1791 14.7411 10.1865 0
302 1 C 16.0485 14.1599 8.86253 0
305 1 C 16.4385 12.7503 5.24506 0
307 3 N 19.7943 15.6782 6.49185 0
309 4 O 17.0903 14.069 8.13946 0
311 4 O 17.5604 13.2902 5.00411 0
313 5 O 14.9004 13.6968 8.47002 0
314 4 O 15.1096 15.552 4.31557 0
315 4 O 15.474 13.4515 5.66574 0
426 1 C 17.5313 15.2755 0.277974 0
398 2 H 18.2533 15.3386 9.91483 0
489 1 C 17.4016 15.308 10.5834 0
44 1 C 4.51011 15.8641 2.04305 0
51 1 C 4.39449 16.1455 3.44813 0
56 4 O 5.46863 16.0505 4.1152 0
62 4 O 3.25652 16.1449 4.01493 0
175 1 C 5.70778 16.1782 1.39039 0
130 2 H 1.9888 17.1869 9.70013 0
133 2 H 0.506272 21.8908 9.16036 0
137 2 H 7.1486 23.5198 5.4136 0
140 2 H 2.90963 22.5032 6.05873 0
141 2 H 2.61547 20.116 6.36091 0
142 2 H 6.7307 19.7731 7.66238 0
143 2 H 7.01566 22.1712 7.39088 0
147 2 H 6.41117 16.8821 1.81987 0
148 1 C 0.876709 16.6481 7.19973 0
152 1 C 0.593205 18.5097 8.69374 0
153 1 C 1.65072 18.208 9.57532 0
154 1 C 2.2826 19.2243 10.2977 0
155 1 C 1.869 20.5501 10.149 0
156 1 C 0.821945 20.8622 9.27835 0
157 1 C 0.186347 19.8498 8.55286 0
164 1 C 4.98921 22.5005 6.68666 0
165 1 C 3.73557 21.9218 6.44892 0
166 1 C 3.56623 20.5635 6.62528 0
167 1 C 4.65363 19.7826 7.02856 0
168 1 C 5.88143 20.371 7.35215 0
169 1 C 6.04699 21.7313 7.18674 0
178 1 C 4.56737 18.3521 6.90843 0
184 4 O 5.63367 17.694 6.75132 0
186 4 O 3.43862 17.7934 6.80363 0
194 2 H 3.70531 18.1132 0.0973513 0
129 2 H 8.87154 17.98 8.2158 0
134 2 H 10.3917 19.7872 7.40318 0
150 1 C 9.26539 17.1722 7.61086 0
151 1 C 8.21518 16.4617 7.02581 0
382 2 H 12.6466 16.7303 9.46574 0
384 2 H 13.3688 20.8758 10.2889 0
385 2 H 11.6271 21.5183 8.64776 0
392 2 H 13.8636 21.7545 6.08912 0
393 2 H 13.716 19.3943 6.52357 0
400 1 C 11.5218 16.137 6.97841 0
401 1 C 10.6798 17.0754 7.58966 0
404 1 C 11.4174 18.1235 8.34403 0
405 1 C 12.4118 17.771 9.27779 0
406 1 C 13.1102 18.7613 9.97543 0
407 1 C 12.825 20.1104 9.75062 0
408 1 C 11.8423 20.4726 8.82615 0
409 1 C 11.142 19.487 8.12444 0
418 1 C 14.613 19.9172 6.83237 0
438 4 O 14.6288 17.1995 7.05118 0
303 1 C 16.111 15.9628 3.64985 0
308 4 O 17.1506 16.4002 4.23333 0
427 1 C 17.3519 15.8671 1.51732 0
149 1 C 21.9552 17.4382 7.88749 0
381 2 H 20.0566 18.1087 8.54509 0
386 2 H 21.3917 20.1133 7.87039 0
389 2 H 18.014 23.2263 5.73702 0
394 2 H 17.7359 19.4213 8.13424 0
395 2 H 17.8721 21.8246 7.71786 0
399 2 H 18.1525 16.4686 1.93006 0
402 1 C 20.5399 17.38 7.90581 0
403 1 C 19.5945 16.5757 7.26374 0
413 1 C 15.9845 23.3581 6.49965 0
416 1 C 15.881 21.9568 6.86642 0
417 1 C 14.7005 21.2659 6.57279 0
419 1 C 15.7073 19.2399 7.38333 0
420 1 C 16.8721 19.9368 7.73203 0
421 1 C 16.9565 21.2979 7.47809 0
430 1 C 15.7068 17.7953 7.33242 0
436 4 O 16.8161 17.1921 7.30548 0
446 2 H 15.0395 17.9287 0.0334925 0
138 2 H 3.32636 24.5709 7.14625 0
161 1 C 5.21544 23.8871 6.33666 0
127 7 Zn 3.46163 30.3037 6.43063 0
135 2 H 3.97434 29.4606 7.78133 0
139 2 H 3.71256 26.8872 6.59319 0
144 2 H 3.25207 29.8472 2.40349 0
145 2 H 3.1074 28.7035 0.281194 0
158 1 C 5.67154 26.5429 5.69993 0
159 1 C 6.63058 25.5866 5.36387 0
160 1 C 6.39864 24.2566 5.67458 0
162 1 C 4.24449 24.8417 6.63789 0
163 1 C 4.46759 26.1626 6.31551 0
171 1 C 4.09432 29.9146 1.72573 0
172 1 C 4.01374 29.2466 0.519702 0
173 1 C 5.30925 29.9073 10.3243 0
176 1 C 5.3845 29.5097 8.93262 0
179 1 C 5.95504 27.9549 5.55489 0
180 3 N 0.789359 30.2572 6.45863 0
183 4 O 6.3541 29.9561 8.23966 0
185 4 O 7.12325 28.3768 5.31522 0
187 5 O 4.40148 28.8491 8.40728 0
189 4 O 5.05473 28.7744 5.86933 0
208 2 H 3.28733 29.1676 10.6058 0
390 2 H 13.9739 23.8197 7.16792 0
136 2 H 7.56475 25.8671 4.89354 0
379 7 Zn 14.3991 30.2638 6.45932 0
396 2 H 14.227 29.4264 2.44572 0
397 2 H 14.0722 28.457 0.238309 0
391 2 H 14.1151 26.1539 6.62919 0
300 1 C 17.2448 29.7233 0.0341893 0
380 6 Zn 17.4639 30.2938 6.20276 0
387 2 H 14.9385 29.5748 7.88903 0
388 2 H 18.1778 25.6188 5.22591 0
410 1 C 16.1551 26.0538 5.87128 0
411 1 C 17.2507 25.2204 5.62011 0
412 1 C 17.1617 23.8674 5.92633 0
414 1 C 14.8866 24.1918 6.71843 0
415 1 C 14.968 25.5264 6.40042 0
423 1 C 15.066 29.5449 1.7706 0
424 1 C 14.9804 28.9778 0.516315 0
425 1 C 16.253 30.1645 10.4495 0
428 1 C 16.2976 29.6896 9.08732 0
431 1 C 16.2663 27.4933 5.77839 0
433 3 N 20.0235 30.41 6.47196 0
435 4 O 17.276 30.0461 8.37174 0
437 4 O 17.4089 28.0463 5.85332 0
439 5 O 15.3041 29.0221 8.60266 0
441 4 O 15.1912 28.1649 5.85691 0
5 2 H 3.44611 3.40326 10.9477 0
6 2 H 2.77639 5.7837 10.7656 0
67 2 H 2.08576 2.49712 20.2115 0
68 2 H 3.44062 4.24574 21.2972 0
69 2 H 2.96786 6.64022 20.8656 0
70 2 H 1.12916 7.2853 19.3357 0
77 2 H 3.15474 7.3771 16.154 0
78 2 H 2.90071 5.02379 16.6731 0
79 2 H 6.82769 5.00225 18.5037 0
80 2 H 7.06494 7.36928 18.0079 0
83 2 H 7.10397 1.60638 20.6361 0
84 2 H 7.08447 1.57862 12.6567 0
85 1 C 0.776394 1.83734 17.8566 0
86 1 C 0.00899235 2.83733 18.4628 0
89 1 C 0.812813 3.88992 19.1418 0
90 1 C 1.86327 3.53762 20.0128 0
91 1 C 2.63461 4.52636 20.6312 0
92 1 C 2.36859 5.87576 20.3881 0
93 1 C 1.33077 6.23905 19.5264 0
94 1 C 0.556147 5.25409 18.9049 0
101 1 C 5.13722 7.52706 17.0235 0
102 1 C 3.95156 6.86775 16.6825 0
103 1 C 3.8029 5.53229 16.9911 0
104 1 C 4.84234 4.85079 17.6366 0
105 1 C 6.01068 5.52067 18.0165 0
106 1 C 6.15448 6.85978 17.7158 0
112 1 C 6.23715 1.07208 12.2112 0
115 1 C 4.78612 3.41495 17.7211 0
121 4 O 5.86263 2.77631 17.8603 0
123 4 O 3.7058 2.82174 17.4553 0
240 1 C 5.01395 1.14017 14.3533 0
245 4 O 6.06804 1.51289 14.9495 0
257 2 H 14.688 3.64389 10.8764 0
66 2 H 9.07845 3.63373 19.05 0
71 2 H 10.5301 5.49031 18.2861 0
87 1 C 9.50544 2.82645 18.4676 0
88 1 C 8.51542 2.01322 17.913 0
319 2 H 12.9905 2.48782 20.1883 0
321 2 H 13.6388 6.64559 21.0032 0
322 2 H 11.7857 7.24767 19.4733 0
329 2 H 14.0334 7.52874 16.4658 0
330 2 H 13.8044 5.1761 16.9915 0
337 1 C 11.7388 1.84463 17.7916 0
338 1 C 10.9172 2.78055 18.4246 0
341 1 C 11.6563 3.84941 19.1504 0
342 1 C 12.7131 3.52171 20.0237 0
343 1 C 13.4225 4.52701 20.6879 0
344 1 C 13.0869 5.86836 20.4904 0
345 1 C 12.0412 6.20726 19.6282 0
346 1 C 11.3287 5.20589 18.9601 0
375 4 O 14.6713 2.96633 17.65 0
318 2 H 20.2273 3.81019 19.0752 0
323 2 H 21.7689 5.55633 18.2302 0
331 2 H 17.7906 5.16405 18.6903 0
332 2 H 18.0032 7.53333 18.1837 0
336 2 H 18.1135 1.90801 12.6567 0
339 1 C 20.605 2.96707 18.5098 0
340 1 C 19.5702 2.20864 17.9597 0
353 1 C 16.0422 7.68501 17.2699 0
354 1 C 14.8445 7.0248 16.978 0
355 1 C 14.711 5.68786 17.2911 0
356 1 C 15.777 5.00521 17.8942 0
357 1 C 16.9516 5.68194 18.2418 0
358 1 C 17.0807 7.02263 17.9351 0
363 1 C 17.3055 0.89317 10.9696 0
364 1 C 17.2472 1.39741 12.2544 0
367 1 C 15.7486 3.56285 17.9241 0
373 4 O 16.8438 2.93851 17.9838 0
485 1 C 16.0965 1.19433 13.0219 0
492 1 C 16.102 1.51474 14.4312 0
497 4 O 17.1647 1.92917 14.9833 0
72 2 H 4.36397 14.8694 18.865 0
75 2 H 3.27945 9.42196 17.3409 0
76 2 H 3.58703 11.7872 17.1348 0
81 2 H 3.28236 15.353 13.5053 0
82 2 H 2.86177 14.9058 11.1666 0
95 1 C 5.66735 11.6532 16.4871 0
96 1 C 6.71749 10.795 16.1533 0
97 1 C 6.52856 9.42601 16.2601 0
98 1 C 5.29613 8.929 16.7141 0
99 1 C 4.23093 9.78897 16.9745 0
100 1 C 4.41192 11.1429 16.8541 0
108 1 C 4.10062 15.4667 12.8045 0
109 1 C 3.85865 15.1989 11.4721 0
116 1 C 5.88689 13.0673 16.6518 0
122 4 O 7.06045 13.5313 16.8033 0
126 4 O 4.86416 13.7806 16.8664 0
64 7 Zn 3.75923 15.6473 17.5408 0
65 6 Zn 6.90594 15.7242 17.3068 0
113 1 C 5.69604 15.223 20.0196 0
120 4 O 6.87007 15.358 19.559 0
124 5 O 4.88231 14.3618 19.5142 0
237 1 C 6.18445 15.6982 10.9683 0
73 2 H 7.69099 11.1804 15.8755 0
74 2 H 7.35652 8.76113 16.0475 0
333 2 H 14.394 15.1617 13.0196 0
334 2 H 14.1339 14.3153 10.7683 0
327 2 H 14.2296 9.63676 17.5665 0
328 2 H 14.5595 11.9829 17.1755 0
324 2 H 15.3887 15.2127 18.5739 0
325 2 H 18.5886 11.218 15.7733 0
326 2 H 18.2325 8.82399 16.1381 0
347 1 C 16.6045 11.7673 16.4458 0
348 1 C 17.6272 10.8702 16.1313 0
349 1 C 17.4266 9.5161 16.3487 0
350 1 C 16.2107 9.07093 16.8931 0
351 1 C 15.1703 9.96468 17.1404 0
352 1 C 15.363 11.3051 16.9121 0
359 1 C 16.477 15.7392 12.7618 0
360 1 C 15.2362 15.2324 12.3421 0
361 1 C 15.0883 14.7366 11.0599 0
368 1 C 16.8439 13.1884 16.4692 0
374 4 O 18.0247 13.6513 16.5239 0
378 4 O 15.8408 13.9347 16.6511 0
365 1 C 16.7319 15.4408 19.7672 0
372 4 O 17.7746 15.7189 19.1047 0
376 5 O 15.805 14.6867 19.2794 0
490 1 C 17.5511 15.802 11.8687 0
131 2 H 3.09589 18.9835 10.9705 0
132 2 H 2.36137 21.3363 10.7065 0
107 1 C 5.3865 15.8452 13.2264 0
110 1 C 5.24647 16.0795 21.0997 0
114 1 C 5.64607 15.9966 14.6415 0
117 3 N 1.10999 15.834 17.5763 0
119 4 O 6.83035 16.1388 15.0754 0
125 4 O 4.67356 15.8466 15.4371 0
193 2 H 2.56968 17.848 20.3365 0
195 2 H 3.0309 22.0779 20.8308 0
196 2 H 1.21925 22.4785 19.1891 0
203 2 H 3.21219 22.0694 16.3661 0
204 2 H 3.33695 19.7429 16.9858 0
206 2 H 7.22501 22.6903 17.8677 0
209 2 H 7.03316 17.3151 21.1062 0
211 1 C 1.41582 16.895 18.049 0
212 1 C 0.553211 17.9061 18.4909 0
215 1 C 1.231 19.0617 19.143 0
216 1 C 2.26454 18.8514 20.0762 0
217 1 C 2.9087 19.9346 20.6806 0
218 1 C 2.53074 21.2404 20.3621 0
219 1 C 1.50858 21.4655 19.4375 0
220 1 C 0.861747 20.3852 18.8288 0
227 1 C 5.21536 22.5374 17.0565 0
228 1 C 4.11207 21.7067 16.848 0
229 1 C 4.1811 20.3828 17.2134 0
230 1 C 5.35773 19.8774 17.7817 0
231 1 C 6.44806 20.7124 18.0356 0
232 1 C 6.37276 22.0483 17.6814 0
238 1 C 6.42711 15.9654 12.303 0
241 1 C 5.48995 18.451 17.8945 0
247 4 O 6.62536 17.924 17.7318 0
249 4 O 4.43958 17.7555 17.9162 0
449 2 H 0.079717 20.5836 18.1064 0
383 2 H 13.8745 18.482 10.6891 0
205 2 H 7.3659 20.3236 18.4605 0
210 2 H 7.42614 16.2466 12.6127 0
118 3 N 9.4413 16.0982 17.4327 0
192 2 H 9.81183 18.7001 19.2502 0
197 2 H 11.1496 20.5826 18.4132 0
213 1 C 10.2497 17.8977 18.6689 0
214 1 C 9.27278 17.0556 18.1378 0
369 3 N 12.162 15.9802 17.3519 0
445 2 H 13.8198 17.7271 20.252 0
447 2 H 14.3208 21.9226 20.9672 0
448 2 H 12.378 22.4146 19.5106 0
455 2 H 14.2391 22.4409 16.5429 0
456 2 H 14.3441 20.0632 16.9309 0
463 1 C 12.4948 16.9649 17.9521 0
464 1 C 11.6611 17.8938 18.584 0
467 1 C 12.3847 19.0083 19.254 0
468 1 C 13.4931 18.7443 20.0821 0
469 1 C 14.1858 19.7911 20.6971 0
470 1 C 13.7828 21.1127 20.4919 0
471 1 C 12.6863 21.3895 19.6717 0
472 1 C 11.9896 20.3456 19.0545 0
316 7 Zn 14.7912 15.8678 17.1601 0
317 6 Zn 17.8812 15.8854 16.8602 0
362 1 C 16.5428 16.0673 21.0611 0
366 1 C 16.682 16.0233 14.1701 0
370 3 N 20.4228 16.1773 17.0968 0
371 4 O 17.8602 16.1649 14.6248 0
377 4 O 15.6849 15.9382 14.9507 0
444 2 H 20.6708 18.7855 18.9187 0
457 2 H 18.5383 20.3934 17.9543 0
458 2 H 18.4231 22.8075 17.5987 0
461 2 H 18.4492 17.111 21.0387 0
462 2 H 18.5169 16.1835 12.177 0
465 1 C 21.1465 17.9492 18.4209 0
466 1 C 20.2092 17.1211 17.8076 0
479 1 C 16.3278 22.7862 17.0279 0
480 1 C 15.1735 22.011 16.883 0
481 1 C 15.233 20.6568 17.11 0
482 1 C 16.4505 20.0691 17.4706 0
483 1 C 17.5931 20.846 17.6784 0
484 1 C 17.5293 22.2106 17.4644 0
493 1 C 16.5437 18.6381 17.4474 0
499 4 O 17.6437 18.094 17.1511 0
501 4 O 15.4829 17.9656 17.5489 0
48 1 C 6.27816 31.5898 21.2918 0
111 1 C 6.37621 30.6061 10.9082 0
190 7 Zn 3.04864 30.6486 17.1612 0
191 6 Zn 6.13082 30.6987 17.047 0
198 2 H 3.66127 30.0445 18.624 0
199 2 H 7.13371 26.3731 15.4008 0
200 2 H 7.16767 23.9704 15.8308 0
201 2 H 3.12029 24.1917 17.3493 0
202 2 H 3.06527 26.5463 16.8861 0
207 2 H 3.11596 29.935 12.8936 0
221 1 C 5.09544 26.6276 16.0985 0
222 1 C 6.24001 25.8904 15.7778 0
223 1 C 6.26425 24.5306 16.0384 0
224 1 C 5.15074 23.9191 16.6329 0
225 1 C 3.98465 24.6462 16.8802 0
226 1 C 3.95345 25.9923 16.6065 0
233 1 C 5.09953 30.8267 12.9365 0
234 1 C 4.02572 30.1451 12.3444 0
235 1 C 4.13015 29.688 11.0446 0
236 1 C 5.11855 30.8667 20.97 0
239 1 C 5.07948 30.0683 19.7612 0
242 1 C 5.14871 28.0664 16.1641 0
243 3 N 0.417376 30.8604 17.2626 0
246 4 O 6.15699 29.8763 19.1255 0
248 4 O 6.2768 28.6465 16.2074 0
250 5 O 3.97266 29.5182 19.3821 0
251 4 O 4.00379 30.8257 15.0022 0
252 4 O 4.07349 28.6841 16.4336 0
244 3 N 8.69981 31.0391 17.2093 0
442 7 Zn 14.0562 30.8182 17.1608 0
459 2 H 14.1433 30.2975 13.0736 0
460 2 H 14.2406 29.4425 10.8163 0
495 3 N 11.4314 30.8898 17.1341 0
450 2 H 14.5907 30.0994 18.573 0
453 2 H 14.3601 24.5092 17.6412 0
454 2 H 14.2985 26.8627 17.162 0
335 2 H 18.0972 31.4393 20.6725 0
443 6 Zn 17.1611 30.9168 17.0013 0
451 2 H 18.1485 26.5894 15.1891 0
452 2 H 18.1835 24.1887 15.6391 0
473 1 C 16.2147 26.8925 16.1204 0
474 1 C 17.303 26.1305 15.687 0
475 1 C 17.3303 24.7733 15.9604 0
476 1 C 16.2789 24.1884 16.6822 0
477 1 C 15.1749 24.9454 17.0753 0
478 1 C 15.1387 26.2887 16.7897 0
486 1 C 15.0348 30.4884 12.4888 0
487 1 C 15.0952 29.9815 11.2076 0
488 1 C 16.0794 30.6782 20.9594 0
491 1 C 16.0255 30.0071 19.681 0
494 1 C 16.2718 28.3322 16.1019 0
496 3 N 19.7129 31.2242 17.2637 0
498 4 O 17.0939 29.8985 19.0084 0
500 4 O 17.3908 28.9186 15.9948 0
502 5 O 14.9111 29.4984 19.2686 0
503 4 O 15.1404 31.1466 15.1237 0
504 4 O 15.2333 28.9618 16.4586 0
