LAMMPS (29 Aug 2024 - Update 3)
  using 1 OpenMP thread(s) per MPI task
units           real
atom_style      full
boundary        p p p

bond_style      harmonic
angle_style     hybrid fourier cosine/periodic
dihedral_style  harmonic
improper_style  fourier

dielectric      1.0
pair_style      lj/cut 12.5
pair_modify     shift yes mix geometric
special_bonds   lj 0.0 0.0 1.0
box             tilt large

The 'box' command has been removed and will be ignored

read_data       data.lmp
Reading data file ...
  triclinic box = (0 0 0) to (22.004052 29.988092 21.298579) with tilt (0.03638351 -0.00365639 1.6480179)
  1 by 1 by 1 MPI processor grid
WARNING: Atom style in data file a, b, c, alpha, beta, gamma: 22.0040515430, 29.9881137199, 21.3622432009, 85.5754619646, 90.0098068237, 89.9304850513 $$$atoms$$$ differs from currently defined atom style full (src/src/read_data.cpp:706)
  reading atoms ...
  504 atoms
  scanning bonds ...
  6 = max bonds/atom
  scanning angles ...
  15 = max angles/atom
  scanning dihedrals ...
  12 = max dihedrals/atom
  scanning impropers ...
  3 = max impropers/atom
  triclinic box = (0 0 0) to (22.004052 29.988092 21.298579) with tilt (0.03638351 -0.00365639 1.6480179)
  1 by 1 by 1 MPI processor grid
  reading bonds ...
  584 bonds
  reading angles ...
  1040 angles
  reading dihedrals ...
  1184 dihedrals
  reading impropers ...
  240 impropers
Finding 1-2 1-3 1-4 neighbors ...
  special bond factors lj:    0        0        1       
  special bond factors coul:  0        0        0       
     6 = max # of 1-2 neighbors
     8 = max # of 1-3 neighbors
    21 = max # of 1-4 neighbors
    20 = max # of special neighbors
  special bonds CPU = 0.000 seconds
  read_data CPU = 0.089 seconds




# simulation
fix                 fxnpt all npt temp 300.0 300.0 $(200.0*dt) tri 1.0 1.0 $(800.0*dt)
fix                 fxnpt all npt temp 300.0 300.0 200 tri 1.0 1.0 $(800.0*dt)
fix                 fxnpt all npt temp 300.0 300.0 200 tri 1.0 1.0 800
variable            Nevery equal 2500
thermo              ${Nevery}
thermo              2500
thermo_style        custom step cpu dt time temp press pe ke etotal density xlo ylo zlo cella cellb cellc cellalpha cellbeta cellgamma
thermo_modify       flush yes
minimize            1.0e-10 1.0e-10 10000 100000
Generated 21 of 21 mixed pair_coeff terms from geometric mixing rule
Neighbor list info ...
  update: every = 1 steps, delay = 0 steps, check = yes
  max neighbors/atom: 2000, page size: 100000
  master list distance cutoff = 14.5
  ghost atom cutoff = 14.5
  binsize = 7.25, bins = 4 5 3
  1 neighbor lists, perpetual/occasional/extra = 1 0 0
  (1) pair lj/cut, perpetual
      attributes: half, newton on
      pair build: half/bin/newton/tri
      stencil: half/bin/3d/tri
      bin: standard
WARNING: Inconsistent image flags (src/src/domain.cpp:1051)
Per MPI rank memory allocation (min/avg/max) = 18.29 | 18.29 | 18.29 Mbytes
   Step          CPU             Dt            Time           Temp          Press          PotEng         KinEng         TotEng        Density          Xlo            Ylo            Zlo           Cella          Cellb          Cellc        CellAlpha       CellBeta      CellGamma   
         0   0              1              0              0              50614.166      6724.8936      0              6724.8936      0.65245538     0              0              0              22.004052      29.988114      21.362243      85.575462      90.009807      89.930485    
       598   22.207086      1              598            0              10933.212      2083.9681      0              2083.9681      0.65245538     0              0              0              22.004052      29.988114      21.362243      85.575462      90.009807      89.930485    
Loop time of 22.2072 on 1 procs for 598 steps with 504 atoms

21.6% CPU use with 1 MPI tasks x 1 OpenMP threads

Minimization stats:
  Stopping criterion = energy tolerance
  Energy initial, next-to-last, final = 
      6724.89364078467   2083.96806377009   2083.96806375088
  Force two-norm initial, final = 113159.79 44.476023
  Force max component initial, final = 29862.229 33.471245
  Final line search alpha, max atom move = 4.6681776e-05 0.0015624972
  Iterations, force evaluations = 598 2827

MPI task timing breakdown:
Section |  min time  |  avg time  |  max time  |%varavg| %total
---------------------------------------------------------------
Pair    | 20.371     | 20.371     | 20.371     |   0.0 | 91.73
Bond    | 1.441      | 1.441      | 1.441      |   0.0 |  6.49
Neigh   | 0.031474   | 0.031474   | 0.031474   |   0.0 |  0.14
Comm    | 0.26933    | 0.26933    | 0.26933    |   0.0 |  1.21
Output  | 0          | 0          | 0          |   0.0 |  0.00
Modify  | 0          | 0          | 0          |   0.0 |  0.00
Other   |            | 0.09484    |            |       |  0.43

Nlocal:            504 ave         504 max         504 min
Histogram: 1 0 0 0 0 0 0 0 0 0
Nghost:           4452 ave        4452 max        4452 min
Histogram: 1 0 0 0 0 0 0 0 0 0
Neighs:         113488 ave      113488 max      113488 min
Histogram: 1 0 0 0 0 0 0 0 0 0

Total # of neighbors = 113488
Ave neighs/atom = 225.1746
Ave special neighs/atom = 12.063492
Neighbor list builds = 4
Dangerous builds = 0
reset_timestep      0
dump                trajectAll all custom ${Nevery} dump.lammpstrj.all id type element x y z q
dump                trajectAll all custom 2500 dump.lammpstrj.all id type element x y z q
dump_modify         trajectAll element C H N O O Zn Zn
timestep            0.5
run                 10000
Generated 21 of 21 mixed pair_coeff terms from geometric mixing rule
WARNING: Inconsistent image flags (src/src/domain.cpp:1051)
Per MPI rank memory allocation (min/avg/max) = 17.17 | 17.17 | 17.17 Mbytes
   Step          CPU             Dt            Time           Temp          Press          PotEng         KinEng         TotEng        Density          Xlo            Ylo            Zlo           Cella          Cellb          Cellc        CellAlpha       CellBeta      CellGamma   
         0   0              0.5            0              0              10933.212      2083.9681      0              2083.9681      0.65245538     0              0              0              22.004052      29.988114      21.362243      85.575462      90.009807      89.930485    
