Created by Ryther's code on 2025-07-29 22:46:51.774965, modified by xyan11@uic.edu. 

    304 atoms
    360 bonds
    640 angles
    664 dihedrals
    128 impropers

    5 atom types
    7 bond types
    10 angle types
    4 dihedral types
    2 improper types

0.00000000 21.31294494 xlo xhi
0.00000000 20.60455431 ylo yhi
0.00000000 20.54274534 zlo zhi
0.00060933 4.638e-05 1.59485127 xy xz yz 

Masses 

    1    12.0107  #   C
    2    1.00794  #   H
    3    14.0067  #   N
    4    15.9994  #   O
    5      65.38  #  Zn

Pair Coeffs

    1       0.10500      3.43085  #  C_R C_R
    2       0.04400      2.57113  #  H_ H_
    3       0.06900      3.26069  #  N_2 N_2
    4       0.06000      3.11815  #  O_2_M O_2_M
    5       0.06000      2.58361  #  Zn6f3 Zn6f3

Bond Coeffs

    1      54.94924      2.40433  #  O_2_M Zn6f3 bond order=0.5
    2      55.07699      2.48452  #  N_2 Zn6f3 bond order=0.5
    3     357.44038      1.08142  #  C_R H_ bond order=1.0
    4     931.53598      1.20133  #  C_R N_2 bond order=3.0
    5     462.65505      1.37926  #  C_R C_R bond order=1.5
    6     391.66951      1.45800  #  C_R C_R bond order=1.0
    7     714.55744      1.26901  #  C_R O_2_M bond order=1.5

Angle Coeffs

    1  cosine/periodic         70.47472            1            4  #  N_2 Zn6f3 O_2_M
    2  cosine/periodic         67.02484            1            4  #  O_2_M Zn6f3 O_2_M
    3  cosine/periodic        179.74893           -1            3  #  C_R C_R N_2
    4  cosine/periodic        102.18328           -1            3  #  C_R C_R C_R
    5  cosine/periodic        111.29751           -1            3  #  C_R C_R C_R
    6  cosine/periodic         57.28902           -1            3  #  C_R C_R H_
    7  cosine/periodic        137.71425           -1            3  #  C_R C_R O_2_M
    8  cosine/periodic        206.77843           -1            3  #  O_2_M C_R O_2_M
    9  fourier                 48.02888      0.36401      0.41847      0.28800  #  C_R N_2 Zn6f3
    10 cosine/periodic         21.77718           -1            3  #  C_R O_2_M Zn6f3

Dihedral Coeffs

    1      27.96100           -1            2  #  X C_R N_2 X bond order=3.0
    2      13.47422           -1            2  #  X C_R C_R X bond order=1.5
    3       1.25000           -1            2  #  X C_R C_R X bond order=1.0
    4       6.73711           -1            2  #  X C_R O_2_M X bond order=1.5

Improper Coeffs

    1       2.00000      1.00000     -1.00000      0.00000            1  #  C_R X X X O_2 present=False
    2      16.66667      1.00000     -1.00000      0.00000            1  #  C_R X X X O_2 present=True

Atoms # a, b, c, alpha, beta, gamma: 21.3129449444, 20.6045543238, 20.6045610682, 85.5607043742, 89.9998710295, 89.9983056240 $$$atoms$$$

    1 1     5      0.00000      3.93535      4.78934      5.83303   #   Zn1   0.18463925   0.21046278   0.28394608
    2 1     5      0.00000      6.86574      4.78930      5.83299   #   Zn2   0.32213292   0.21046093   0.28394389
    3 1     2      0.00000      3.79219      9.94051      6.59043   #    H2   0.17791516   0.45761048   0.32081537
    4 1     2      0.00000      7.18159      7.80481      4.99445   #    H4   0.33694846   0.35997213   0.24312497
    5 1     2      0.00000      8.28067      9.94038      4.47697   #    H5   0.38851392   0.46556731   0.21793431
    6 1     2      0.00000      7.18142      1.77373      4.99445   #    H6   0.33694847   0.06726596   0.24312490
    7 1     2      0.00000      4.22406      5.71964      0.59415   #    H8   0.19818451   0.27535225   0.02892262
    8 1     2      0.00000      6.70319      3.55134      8.95374   #   H10   0.31450778   0.13862018   0.43585887
    9 1     2      0.00000      7.50701      2.01120      0.88205   #   H11   0.35222486   0.09428578   0.04293729
   10 1     2      0.00000      6.70318      3.08451      2.94075   #   H12   0.31450785   0.13862017   0.14315262
   11 1     1      0.00000      0.77830      4.78937      5.83295   #    C1   0.03651092   0.21046456   0.28394233
   12 1     1      0.00000     10.02279      4.78937      5.83295   #    C2   0.47026123   0.21046449   0.28394233
   13 1     1      0.00000      5.40049      0.86140      5.83301   #    C3   0.25338910   0.01982795   0.28394513
   14 1     1      0.00000      4.77193      9.94048      6.12911   #    C4   0.22388442   0.45934725   0.29835866
   15 1     1      0.00000      5.40072      8.71726      5.83301   #    C5   0.25338907   0.40109607   0.28394515
   16 1     1      0.00000      6.67234      8.72989      5.23425   #    C6   0.31305326   0.40396551   0.25479816
   17 1     1      0.00000      7.30133      9.94041      4.93810   #    C7   0.34256362   0.46383117   0.24038182
   18 1     1      0.00000      6.67211      0.84868      5.23425   #    C8   0.31305325   0.02146698   0.25479812
   19 1     1      0.00000      5.40060      4.48529      1.91687   #    C9   0.25338909   0.21046200   0.09331106
   20 1     1      0.00000      4.94066      4.91016      0.65699   #   C10   0.23180819   0.23582924   0.03198170
   21 1     1      0.00000      5.40062      5.09336      9.74916   #   C11   0.25338909   0.21046200   0.47457921
   22 1     1      0.00000      6.33070      4.04371      9.84336   #   C12   0.29702986   0.15916454   0.47916487
   23 1     1      0.00000      6.79071      2.82033      0.81923   #   C13   0.31861498   0.13379241   0.03987938
   24 1     1      0.00000      6.33068      3.43368      1.98579   #   C14   0.29702993   0.15916455   0.09666632
   25 1     1      0.00000      5.40058      4.92513      8.26869   #   C15   0.25338769   0.20787582   0.40251137
   26 1     1      0.00000      5.40054      4.65353      3.39733   #   C16   0.25338599   0.21304870   0.16537867
   27 1     1      0.00000      5.40061      7.22821      5.77987   #   C17   0.25338586   0.32902828   0.28135823
   28 1     1      0.00000      5.40051      2.35044      5.88615   #   C18   0.25338777   0.09189547   0.28653183
   29 1     3      0.00000      1.93544      4.78937      5.83295   #    N1   0.09080374   0.21046452   0.28394233
   30 1     3      0.00000      8.86565      4.78937      5.83295   #    N2   0.41596845   0.21046448   0.28394233
   31 1     4      0.00000      6.51259      4.70991      3.89417   #    O1   0.30556308   0.21391329   0.18956439
   32 1     4      0.00000      6.51264      4.86871      7.77181   #    O2   0.30556511   0.20700935   0.37832380
   33 1     4      0.00000      6.51264      6.72847      5.76207   #    O3   0.30556293   0.30484148   0.28049179
   34 1     4      0.00000      6.51258      2.85015      5.90391   #    O4   0.30556521   0.11608115   0.28739635
   35 1     4      0.00000      4.28851      6.72849      5.76211   #    O5   0.20120692   0.30484255   0.28049362
   36 1     4      0.00000      4.28850      4.86875      7.77185   #    O6   0.20120910   0.20701119   0.37832560
   37 1     4      0.00000      4.28845      4.70995      3.89419   #    O7   0.20120706   0.21391511   0.18956540
   38 1     4      0.00000      4.28844      2.85019      5.90393   #    O8   0.20120919   0.11608297   0.28739741
   39 1     5      0.00000      3.93537      5.58677     16.10440   #   Zn1   0.18463925   0.21046278   0.78394608
   40 1     5      0.00000      6.86577      5.58673     16.10436   #   Zn2   0.32213292   0.21046093   0.78394389
   41 1     2      0.00000      3.79221     10.73794     16.86180   #    H2   0.17791516   0.45761048   0.82081537
   42 1     2      0.00000      7.18162      8.60224     15.26583   #    H4   0.33694846   0.35997213   0.74312497
   43 1     2      0.00000      8.28069     10.73781     14.74834   #    H5   0.38851392   0.46556731   0.71793431
   44 1     2      0.00000      7.18144      2.57116     15.26583   #    H6   0.33694847   0.06726596   0.74312490
   45 1     2      0.00000      4.22409      6.51706     10.86552   #    H8   0.19818451   0.27535225   0.52892262
   46 1     2      0.00000      6.70321      4.34876     19.22511   #   H10   0.31450778   0.13862018   0.93585887
   47 1     2      0.00000      7.50703      2.80862     11.15342   #   H11   0.35222486   0.09428578   0.54293729
   48 1     2      0.00000      6.70320      3.88194     13.21212   #   H12   0.31450785   0.13862017   0.64315262
   49 1     1      0.00000      0.77832      5.58680     16.10433   #    C1   0.03651092   0.21046456   0.78394233
   50 1     1      0.00000     10.02282      5.58680     16.10433   #    C2   0.47026123   0.21046449   0.78394233
   51 1     1      0.00000      5.40052      1.65882     16.10439   #    C3   0.25338910   0.01982795   0.78394513
   52 1     1      0.00000      4.77195     10.73791     16.40048   #    C4   0.22388442   0.45934725   0.79835866
   53 1     1      0.00000      5.40075      9.51468     16.10439   #    C5   0.25338907   0.40109607   0.78394515
   54 1     1      0.00000      6.67237      9.52732     15.50563   #    C6   0.31305326   0.40396551   0.75479816
   55 1     1      0.00000      7.30136     10.73783     15.20948   #    C7   0.34256362   0.46383117   0.74038182
   56 1     1      0.00000      6.67213      1.64611     15.50563   #    C8   0.31305325   0.02146698   0.75479812
   57 1     1      0.00000      5.40062      5.28272     12.18824   #    C9   0.25338909   0.21046200   0.59331106
   58 1     1      0.00000      4.94068      5.70759     10.92836   #   C10   0.23180819   0.23582924   0.53198170
   59 1     1      0.00000      5.40064      5.89078     20.02053   #   C11   0.25338909   0.21046200   0.97457921
   60 1     1      0.00000      6.33072      4.84114     20.11473   #   C12   0.29702986   0.15916454   0.97916487
   61 1     1      0.00000      6.79073      3.61776     11.09060   #   C13   0.31861498   0.13379241   0.53987938
   62 1     1      0.00000      6.33071      4.23111     12.25716   #   C14   0.29702993   0.15916455   0.59666632
   63 1     1      0.00000      5.40061      5.72256     18.54006   #   C15   0.25338769   0.20787582   0.90251137
   64 1     1      0.00000      5.40056      5.45095     13.66870   #   C16   0.25338599   0.21304870   0.66537867
   65 1     1      0.00000      5.40064      8.02563     16.05124   #   C17   0.25338586   0.32902828   0.78135823
   66 1     1      0.00000      5.40053      3.14787     16.15752   #   C18   0.25338777   0.09189547   0.78653183
   67 1     3      0.00000      1.93546      5.58680     16.10433   #    N1   0.09080374   0.21046452   0.78394233
   68 1     3      0.00000      8.86568      5.58680     16.10433   #    N2   0.41596845   0.21046448   0.78394233
   69 1     4      0.00000      6.51261      5.50734     14.16555   #    O1   0.30556308   0.21391329   0.68956439
   70 1     4      0.00000      6.51266      5.66613     18.04318   #    O2   0.30556511   0.20700935   0.87832380
   71 1     4      0.00000      6.51267      7.52589     16.03344   #    O3   0.30556293   0.30484148   0.78049179
   72 1     4      0.00000      6.51260      3.64758     16.17528   #    O4   0.30556521   0.11608115   0.78739635
   73 1     4      0.00000      4.28853      7.52592     16.03348   #    O5   0.20120692   0.30484255   0.78049362
   74 1     4      0.00000      4.28853      5.66617     18.04322   #    O6   0.20120910   0.20701119   0.87832560
   75 1     4      0.00000      4.28848      5.50738     14.16557   #    O7   0.20120706   0.21391511   0.68956540
   76 1     4      0.00000      4.28847      3.64762     16.17530   #    O8   0.20120919   0.11608297   0.78739741
   77 1     5      0.00000      3.93565     15.09162      5.83303   #   Zn1   0.18463925   0.71046278   0.28394608
   78 1     5      0.00000      6.86605     15.09158      5.83299   #   Zn2   0.32213292   0.71046093   0.28394389
   79 1     2      0.00000      3.79249     20.24279      6.59043   #    H2   0.17791516   0.95761048   0.32081537
   80 1     2      0.00000      7.18190     18.10709      4.99445   #    H4   0.33694846   0.85997213   0.24312497
   81 1     2      0.00000      8.28097     20.24266      4.47697   #    H5   0.38851392   0.96556731   0.21793431
   82 1     2      0.00000      7.18172     12.07601      4.99445   #    H6   0.33694847   0.56726596   0.24312490
   83 1     2      0.00000      4.22437     16.02191      0.59415   #    H8   0.19818451   0.77535225   0.02892262
   84 1     2      0.00000      6.70350     13.85361      8.95374   #   H10   0.31450778   0.63862018   0.43585887
   85 1     2      0.00000      7.50731     12.31347      0.88205   #   H11   0.35222486   0.59428578   0.04293729
   86 1     2      0.00000      6.70348     13.38679      2.94075   #   H12   0.31450785   0.63862017   0.14315262
   87 1     1      0.00000      0.77860     15.09165      5.83295   #    C1   0.03651092   0.71046456   0.28394233
   88 1     1      0.00000     10.02310     15.09165      5.83295   #    C2   0.47026123   0.71046449   0.28394233
   89 1     1      0.00000      5.40080     11.16367      5.83301   #    C3   0.25338910   0.51982795   0.28394513
   90 1     1      0.00000      4.77223     20.24276      6.12911   #    C4   0.22388442   0.95934725   0.29835866
   91 1     1      0.00000      5.40103     19.01953      5.83301   #    C5   0.25338907   0.90109607   0.28394515
   92 1     1      0.00000      6.67265     19.03217      5.23425   #    C6   0.31305326   0.90396551   0.25479816
   93 1     1      0.00000      7.30164     20.24268      4.93810   #    C7   0.34256362   0.96383117   0.24038182
   94 1     1      0.00000      6.67242     11.15096      5.23425   #    C8   0.31305325   0.52146698   0.25479812
   95 1     1      0.00000      5.40091     14.78757      1.91687   #    C9   0.25338909   0.71046200   0.09331106
   96 1     1      0.00000      4.94097     15.21244      0.65699   #   C10   0.23180819   0.73582924   0.03198170
   97 1     1      0.00000      5.40092     15.39564      9.74916   #   C11   0.25338909   0.71046200   0.47457921
   98 1     1      0.00000      6.33100     14.34599      9.84336   #   C12   0.29702986   0.65916454   0.47916487
   99 1     1      0.00000      6.79101     13.12261      0.81923   #   C13   0.31861498   0.63379241   0.03987938
  100 1     1      0.00000      6.33099     13.73596      1.98579   #   C14   0.29702993   0.65916455   0.09666632
  101 1     1      0.00000      5.40089     15.22741      8.26869   #   C15   0.25338769   0.70787582   0.40251137
  102 1     1      0.00000      5.40084     14.95581      3.39733   #   C16   0.25338599   0.71304870   0.16537867
  103 1     1      0.00000      5.40092     17.53048      5.77987   #   C17   0.25338586   0.82902828   0.28135823
  104 1     1      0.00000      5.40081     12.65272      5.88615   #   C18   0.25338777   0.59189547   0.28653183
  105 1     3      0.00000      1.93574     15.09165      5.83295   #    N1   0.09080374   0.71046452   0.28394233
  106 1     3      0.00000      8.86596     15.09165      5.83295   #    N2   0.41596845   0.71046448   0.28394233
  107 1     4      0.00000      6.51289     15.01219      3.89417   #    O1   0.30556308   0.71391329   0.18956439
  108 1     4      0.00000      6.51294     15.17098      7.77181   #    O2   0.30556511   0.70700935   0.37832380
  109 1     4      0.00000      6.51295     17.03074      5.76207   #    O3   0.30556293   0.80484148   0.28049179
  110 1     4      0.00000      6.51288     13.15243      5.90391   #    O4   0.30556521   0.61608115   0.28739635
  111 1     4      0.00000      4.28882     17.03077      5.76211   #    O5   0.20120692   0.80484255   0.28049362
  112 1     4      0.00000      4.28881     15.17102      7.77185   #    O6   0.20120910   0.70701119   0.37832560
  113 1     4      0.00000      4.28876     15.01223      3.89419   #    O7   0.20120706   0.71391511   0.18956540
  114 1     4      0.00000      4.28875     13.15247      5.90393   #    O8   0.20120919   0.61608297   0.28739741
  115 1     5      0.00000      3.93568     15.88905     16.10440   #   Zn1   0.18463925   0.71046278   0.78394608
  116 1     5      0.00000      6.86607     15.88900     16.10436   #   Zn2   0.32213292   0.71046093   0.78394389
  117 1     2      0.00000      3.79252     21.04022     16.86180   #    H2   0.17791516   0.95761048   0.82081537
  118 1     2      0.00000      7.18192     18.90452     15.26583   #    H4   0.33694846   0.85997213   0.74312497
  119 1     2      0.00000      8.28100     21.04008     14.74834   #    H5   0.38851392   0.96556731   0.71793431
  120 1     2      0.00000      7.18174     12.87344     15.26583   #    H6   0.33694847   0.56726596   0.74312490
  121 1     2      0.00000      4.22439     16.81934     10.86552   #    H8   0.19818451   0.77535225   0.52892262
  122 1     2      0.00000      6.70352     14.65104     19.22511   #   H10   0.31450778   0.63862018   0.93585887
  123 1     2      0.00000      7.50734     13.11090     11.15342   #   H11   0.35222486   0.59428578   0.54293729
  124 1     2      0.00000      6.70351     14.18422     13.21212   #   H12   0.31450785   0.63862017   0.64315262
  125 1     1      0.00000      0.77862     15.88908     16.10433   #    C1   0.03651092   0.71046456   0.78394233
  126 1     1      0.00000     10.02312     15.88908     16.10433   #    C2   0.47026123   0.71046449   0.78394233
  127 1     1      0.00000      5.40082     11.96110     16.10439   #    C3   0.25338910   0.51982795   0.78394513
  128 1     1      0.00000      4.77226     21.04019     16.40048   #    C4   0.22388442   0.95934725   0.79835866
  129 1     1      0.00000      5.40105     19.81696     16.10439   #    C5   0.25338907   0.90109607   0.78394515
  130 1     1      0.00000      6.67267     19.82960     15.50563   #    C6   0.31305326   0.90396551   0.75479816
  131 1     1      0.00000      7.30166     21.04011     15.20948   #    C7   0.34256362   0.96383117   0.74038182
  132 1     1      0.00000      6.67244     11.94839     15.50563   #    C8   0.31305325   0.52146698   0.75479812
  133 1     1      0.00000      5.40093     15.58500     12.18824   #    C9   0.25338909   0.71046200   0.59331106
  134 1     1      0.00000      4.94099     16.00987     10.92836   #   C10   0.23180819   0.73582924   0.53198170
  135 1     1      0.00000      5.40095     16.19306     20.02053   #   C11   0.25338909   0.71046200   0.97457921
  136 1     1      0.00000      6.33103     15.14341     20.11473   #   C12   0.29702986   0.65916454   0.97916487
  137 1     1      0.00000      6.79103     13.92004     11.09060   #   C13   0.31861498   0.63379241   0.53987938
  138 1     1      0.00000      6.33101     14.53339     12.25716   #   C14   0.29702993   0.65916455   0.59666632
  139 1     1      0.00000      5.40091     16.02484     18.54006   #   C15   0.25338769   0.70787582   0.90251137
  140 1     1      0.00000      5.40087     15.75323     13.66870   #   C16   0.25338599   0.71304870   0.66537867
  141 1     1      0.00000      5.40094     18.32791     16.05124   #   C17   0.25338586   0.82902828   0.78135823
  142 1     1      0.00000      5.40084     13.45014     16.15752   #   C18   0.25338777   0.59189547   0.78653183
  143 1     3      0.00000      1.93576     15.88908     16.10433   #    N1   0.09080374   0.71046452   0.78394233
  144 1     3      0.00000      8.86598     15.88908     16.10433   #    N2   0.41596845   0.71046448   0.78394233
  145 1     4      0.00000      6.51292     15.80962     14.16555   #    O1   0.30556308   0.71391329   0.68956439
  146 1     4      0.00000      6.51296     15.96841     18.04318   #    O2   0.30556511   0.70700935   0.87832380
  147 1     4      0.00000      6.51297     17.82817     16.03344   #    O3   0.30556293   0.80484148   0.78049179
  148 1     4      0.00000      6.51291     13.94986     16.17528   #    O4   0.30556521   0.61608115   0.78739635
  149 1     4      0.00000      4.28884     17.82819     16.03348   #    O5   0.20120692   0.80484255   0.78049362
  150 1     4      0.00000      4.28883     15.96845     18.04322   #    O6   0.20120910   0.70701119   0.87832560
  151 1     4      0.00000      4.28878     15.80966     14.16557   #    O7   0.20120706   0.71391511   0.68956540
  152 1     4      0.00000      4.28877     13.94990     16.17530   #    O8   0.20120919   0.61608297   0.78739741
  153 1     5      0.00000     14.59182      4.78934      5.83303   #   Zn1   0.68463925   0.21046278   0.28394608
  154 1     5      0.00000     17.52222      4.78930      5.83299   #   Zn2   0.82213292   0.21046093   0.28394389
  155 1     2      0.00000     14.44866      9.94051      6.59043   #    H2   0.67791516   0.45761048   0.32081537
  156 1     2      0.00000     17.83807      7.80481      4.99445   #    H4   0.83694846   0.35997213   0.24312497
  157 1     2      0.00000     18.93714      9.94038      4.47697   #    H5   0.88851392   0.46556731   0.21793431
  158 1     2      0.00000     17.83789      1.77373      4.99445   #    H6   0.83694847   0.06726596   0.24312490
  159 1     2      0.00000     14.88054      5.71964      0.59415   #    H8   0.69818451   0.27535225   0.02892262
  160 1     2      0.00000     17.35966      3.55134      8.95374   #   H10   0.81450778   0.13862018   0.43585887
  161 1     2      0.00000     18.16348      2.01120      0.88205   #   H11   0.85222486   0.09428578   0.04293729
  162 1     2      0.00000     17.35965      3.08451      2.94075   #   H12   0.81450785   0.13862017   0.14315262
  163 1     1      0.00000     11.43477      4.78937      5.83295   #    C1   0.53651092   0.21046456   0.28394233
  164 1     1      0.00000     20.67927      4.78937      5.83295   #    C2   0.97026123   0.21046449   0.28394233
  165 1     1      0.00000     16.05697      0.86140      5.83301   #    C3   0.75338910   0.01982795   0.28394513
  166 1     1      0.00000     15.42840      9.94048      6.12911   #    C4   0.72388442   0.45934725   0.29835866
  167 1     1      0.00000     16.05720      8.71726      5.83301   #    C5   0.75338907   0.40109607   0.28394515
  168 1     1      0.00000     17.32882      8.72989      5.23425   #    C6   0.81305326   0.40396551   0.25479816
  169 1     1      0.00000     17.95781      9.94041      4.93810   #    C7   0.84256362   0.46383117   0.24038182
  170 1     1      0.00000     17.32858      0.84868      5.23425   #    C8   0.81305325   0.02146698   0.25479812
  171 1     1      0.00000     16.05707      4.48529      1.91687   #    C9   0.75338909   0.21046200   0.09331106
  172 1     1      0.00000     15.59713      4.91016      0.65699   #   C10   0.73180819   0.23582924   0.03198170
  173 1     1      0.00000     16.05709      5.09336      9.74916   #   C11   0.75338909   0.21046200   0.47457921
  174 1     1      0.00000     16.98717      4.04371      9.84336   #   C12   0.79702986   0.15916454   0.47916487
  175 1     1      0.00000     17.44718      2.82033      0.81923   #   C13   0.81861498   0.13379241   0.03987938
  176 1     1      0.00000     16.98716      3.43368      1.98579   #   C14   0.79702993   0.15916455   0.09666632
  177 1     1      0.00000     16.05706      4.92513      8.26869   #   C15   0.75338769   0.20787582   0.40251137
  178 1     1      0.00000     16.05701      4.65353      3.39733   #   C16   0.75338599   0.21304870   0.16537867
  179 1     1      0.00000     16.05708      7.22821      5.77987   #   C17   0.75338586   0.32902828   0.28135823
  180 1     1      0.00000     16.05698      2.35044      5.88615   #   C18   0.75338777   0.09189547   0.28653183
  181 1     3      0.00000     12.59191      4.78937      5.83295   #    N1   0.59080374   0.21046452   0.28394233
  182 1     3      0.00000     19.52213      4.78937      5.83295   #    N2   0.91596845   0.21046448   0.28394233
  183 1     4      0.00000     17.16906      4.70991      3.89417   #    O1   0.80556308   0.21391329   0.18956439
  184 1     4      0.00000     17.16911      4.86871      7.77181   #    O2   0.80556511   0.20700935   0.37832380
  185 1     4      0.00000     17.16912      6.72847      5.76207   #    O3   0.80556293   0.30484148   0.28049179
  186 1     4      0.00000     17.16905      2.85015      5.90391   #    O4   0.80556521   0.11608115   0.28739635
  187 1     4      0.00000     14.94498      6.72849      5.76211   #    O5   0.70120692   0.30484255   0.28049362
  188 1     4      0.00000     14.94497      4.86875      7.77185   #    O6   0.70120910   0.20701119   0.37832560
  189 1     4      0.00000     14.94493      4.70995      3.89419   #    O7   0.70120706   0.21391511   0.18956540
  190 1     4      0.00000     14.94492      2.85019      5.90393   #    O8   0.70120919   0.11608297   0.28739741
  191 1     5      0.00000     14.59184      5.58677     16.10440   #   Zn1   0.68463925   0.21046278   0.78394608
  192 1     5      0.00000     17.52224      5.58673     16.10436   #   Zn2   0.82213292   0.21046093   0.78394389
  193 1     2      0.00000     14.44869     10.73794     16.86180   #    H2   0.67791516   0.45761048   0.82081537
  194 1     2      0.00000     17.83809      8.60224     15.26583   #    H4   0.83694846   0.35997213   0.74312497
  195 1     2      0.00000     18.93717     10.73781     14.74834   #    H5   0.88851392   0.46556731   0.71793431
  196 1     2      0.00000     17.83791      2.57116     15.26583   #    H6   0.83694847   0.06726596   0.74312490
  197 1     2      0.00000     14.88056      6.51706     10.86552   #    H8   0.69818451   0.27535225   0.52892262
  198 1     2      0.00000     17.35969      4.34876     19.22511   #   H10   0.81450778   0.13862018   0.93585887
  199 1     2      0.00000     18.16350      2.80862     11.15342   #   H11   0.85222486   0.09428578   0.54293729
  200 1     2      0.00000     17.35968      3.88194     13.21212   #   H12   0.81450785   0.13862017   0.64315262
  201 1     1      0.00000     11.43479      5.58680     16.10433   #    C1   0.53651092   0.21046456   0.78394233
  202 1     1      0.00000     20.67929      5.58680     16.10433   #    C2   0.97026123   0.21046449   0.78394233
  203 1     1      0.00000     16.05699      1.65882     16.10439   #    C3   0.75338910   0.01982795   0.78394513
  204 1     1      0.00000     15.42843     10.73791     16.40048   #    C4   0.72388442   0.45934725   0.79835866
  205 1     1      0.00000     16.05722      9.51468     16.10439   #    C5   0.75338907   0.40109607   0.78394515
  206 1     1      0.00000     17.32884      9.52732     15.50563   #    C6   0.81305326   0.40396551   0.75479816
  207 1     1      0.00000     17.95783     10.73783     15.20948   #    C7   0.84256362   0.46383117   0.74038182
  208 1     1      0.00000     17.32861      1.64611     15.50563   #    C8   0.81305325   0.02146698   0.75479812
  209 1     1      0.00000     16.05710      5.28272     12.18824   #    C9   0.75338909   0.21046200   0.59331106
  210 1     1      0.00000     15.59716      5.70759     10.92836   #   C10   0.73180819   0.23582924   0.53198170
  211 1     1      0.00000     16.05711      5.89078     20.02053   #   C11   0.75338909   0.21046200   0.97457921
  212 1     1      0.00000     16.98720      4.84114     20.11473   #   C12   0.79702986   0.15916454   0.97916487
  213 1     1      0.00000     17.44720      3.61776     11.09060   #   C13   0.81861498   0.13379241   0.53987938
  214 1     1      0.00000     16.98718      4.23111     12.25716   #   C14   0.79702993   0.15916455   0.59666632
  215 1     1      0.00000     16.05708      5.72256     18.54006   #   C15   0.75338769   0.20787582   0.90251137
  216 1     1      0.00000     16.05703      5.45095     13.66870   #   C16   0.75338599   0.21304870   0.66537867
  217 1     1      0.00000     16.05711      8.02563     16.05124   #   C17   0.75338586   0.32902828   0.78135823
  218 1     1      0.00000     16.05700      3.14787     16.15752   #   C18   0.75338777   0.09189547   0.78653183
  219 1     3      0.00000     12.59193      5.58680     16.10433   #    N1   0.59080374   0.21046452   0.78394233
  220 1     3      0.00000     19.52215      5.58680     16.10433   #    N2   0.91596845   0.21046448   0.78394233
  221 1     4      0.00000     17.16908      5.50734     14.16555   #    O1   0.80556308   0.21391329   0.68956439
  222 1     4      0.00000     17.16913      5.66613     18.04318   #    O2   0.80556511   0.20700935   0.87832380
  223 1     4      0.00000     17.16914      7.52589     16.03344   #    O3   0.80556293   0.30484148   0.78049179
  224 1     4      0.00000     17.16907      3.64758     16.17528   #    O4   0.80556521   0.11608115   0.78739635
  225 1     4      0.00000     14.94501      7.52592     16.03348   #    O5   0.70120692   0.30484255   0.78049362
  226 1     4      0.00000     14.94500      5.66617     18.04322   #    O6   0.70120910   0.20701119   0.87832560
  227 1     4      0.00000     14.94495      5.50738     14.16557   #    O7   0.70120706   0.21391511   0.68956540
  228 1     4      0.00000     14.94494      3.64762     16.17530   #    O8   0.70120919   0.11608297   0.78739741
  229 1     5      0.00000     14.59212     15.09162      5.83303   #   Zn1   0.68463925   0.71046278   0.28394608
  230 1     5      0.00000     17.52252     15.09158      5.83299   #   Zn2   0.82213292   0.71046093   0.28394389
  231 1     2      0.00000     14.44897     20.24279      6.59043   #    H2   0.67791516   0.95761048   0.32081537
  232 1     2      0.00000     17.83837     18.10709      4.99445   #    H4   0.83694846   0.85997213   0.24312497
  233 1     2      0.00000     18.93745     20.24266      4.47697   #    H5   0.88851392   0.96556731   0.21793431
  234 1     2      0.00000     17.83819     12.07601      4.99445   #    H6   0.83694847   0.56726596   0.24312490
  235 1     2      0.00000     14.88084     16.02191      0.59415   #    H8   0.69818451   0.77535225   0.02892262
  236 1     2      0.00000     17.35997     13.85361      8.95374   #   H10   0.81450778   0.63862018   0.43585887