Created by Ryther's code on 2025-07-25 17:28:33.359471, modified by xyan11@uic.edu. 

    432 atoms
    496 bonds
    936 angles
    952 dihedrals
    160 impropers

    8 atom types
    13 bond types
    23 angle types
    8 dihedral types
    2 improper types

0.00000000 28.94912415 xlo xhi
0.00000000 30.88910487 ylo yhi
0.00000000 17.72970262 zlo zhi
-0.00877786 2.25222149 1.35368895 xy xz yz 

Masses 

    1     32.065  #   S
    2    15.9994  #   O
    3    15.9994  #   O
    4    14.0067  #   N
    5    1.00794  #   H
    6      65.38  #  Zn
    7    12.0107  #   C
    8    12.0107  #   C

Pair Coeffs

    1       0.27400      3.59478  #  S_3 S_3
    2       0.06000      3.11815  #  O_2_M O_2_M
    3       0.06000      3.11815  #  O_3 O_3
    4       0.06900      3.26069  #  N_2 N_2
    5       0.04400      2.57113  #  H_ H_
    6       0.12400      2.46155  #  Zn3+2 Zn3+2
    7       0.10500      3.43085  #  C_3 C_3
    8       0.10500      3.43085  #  C_R C_R

Bond Coeffs

    1     131.87166      1.96411  #  O_2_M Zn3+2 bond order=0.5
    2     169.60151      1.86783  #  N_2 Zn3+2 bond order=1.0
    3      83.70832      1.54605  #  H_ Zn3+2 bond order=1.0
    4     357.44038      1.08142  #  C_R H_ bond order=1.0
    5     331.06939      1.10940  #  C_3 H_ bond order=1.0
    6     462.65505      1.37926  #  C_R C_R bond order=1.5
    7     931.53598      1.20133  #  C_R N_2 bond order=3.0
    8     301.29678      1.78592  #  C_R S_3 bond order=1.0
    9     391.66951      1.45800  #  C_R C_R bond order=1.0
    10    572.46041      1.36631  #  C_R O_3 bond order=1.0
    11    349.79590      1.51400  #  C_3 C_3 bond order=1.0
    12    369.94394      1.48600  #  C_3 C_R bond order=1.0
    13    714.49531      1.26901  #  C_R O_2_M bond order=1.5

Angle Coeffs

    1  fourier                141.94394      0.34375      0.37500      0.28125  #  O_2_M Zn3+2 O_2_M
    2  fourier                168.93786      0.34375      0.37500      0.28125  #  N_2 Zn3+2 O_2_M
    3  fourier                 27.89484      0.34375      0.37500      0.28125  #  H_ Zn3+2 H_
    4  fourier                 59.97536      0.34375      0.37500      0.28125  #  H_ Zn3+2 O_2_M
    5  fourier                 72.83028      0.34375      0.37500      0.28125  #  H_ Zn3+2 N_2
    6  cosine/periodic        179.74893           -1            3  #  C_R C_R N_2
    7  cosine/periodic        111.29751           -1            3  #  C_R C_R C_R
    8  cosine/periodic        101.95051           -1            3  #  C_R C_R S_3
    9  cosine/periodic         57.28902           -1            3  #  C_R C_R H_
    10 cosine/periodic        102.18328           -1            3  #  C_R C_R C_R
    11 cosine/periodic        135.76992           -1            3  #  C_R C_R O_3
    12 cosine/periodic        102.18328           -1            3  #  C_R C_R C_R
    13 fourier                117.31542      0.34375      0.37500      0.28125  #  C_3 C_3 H_
    14 fourier                 75.49653      0.34375      0.37500      0.28125  #  H_ C_3 H_
    15 fourier                121.77380      0.34375      0.37500      0.28125  #  C_R C_3 H_
    16 fourier                220.22341      0.34375      0.37500      0.28125  #  C_3 C_3 C_R
    17 cosine/periodic        133.30340           -1            3  #  C_3 C_R O_2_M
    18 cosine/periodic        206.74247           -1            3  #  O_2_M C_R O_2_M
    19 cosine/periodic        137.70227           -1            3  #  C_R C_R O_2_M
    20 fourier                211.54307      0.25101      0.03669      0.25034  #  C_R S_3 C_R
    21 fourier                123.90958      0.36401      0.41847      0.28800  #  C_R N_2 Zn3+2
    22 fourier                330.82111      0.30023      0.26733      0.26675  #  C_R O_3 C_R
    23 cosine/periodic         44.54794           -1            3  #  C_R O_2_M Zn3+2

Dihedral Coeffs

    1       6.73711           -1            2  #  X C_R C_R X bond order=1.5
    2      27.96100           -1            2  #  X C_R N_2 X bond order=3.0
    3       1.22984           -1            2  #  X C_R S_3 X bond order=1.0
    4       1.25000           -1            2  #  X C_R C_R X bond order=1.0
    5       0.23717           -1            2  #  X C_R O_3 X bond order=1.0
    6       0.11772            1            3  #  X C_3 C_3 X bond order=1.0
    7       0.16667           -1            6  #  X C_3 C_R X bond order=1.0
    8       6.73711           -1            2  #  X C_R O_2_M X bond order=1.5

Improper Coeffs

    1       2.00000      1.00000     -1.00000      0.00000            1  #  C_R X X X O_2 present=False
    2      16.66667      1.00000     -1.00000      0.00000            1  #  C_R X X X O_2 present=True

Atoms # a, b, c, alpha, beta, gamma: 28.9491241474, 30.8891061202, 17.9233738578, 85.6705800549, 82.7812240766, 90.0162819332 $$$atoms$$$

    1 1     6      0.00000      2.36973     14.83928      3.00973   #   Zn1   0.06879504   0.47296539   0.16975648
    2 1     6      0.00000      5.30013     14.83923      3.00969   #   Zn2   0.17002093   0.47296417   0.16975394
    3 1     5      0.00000     12.36689     12.23856      2.12656   #    H1   0.41798082   0.39095318   0.11994308
    4 1     5      0.00000      9.77754     12.23856      2.12655   #    H2   0.32853617   0.39095328   0.11994270
    5 1     5      0.00000      6.18511     13.34180      3.51025   #    H3   0.19837954   0.42324902   0.19798718
    6 1     5      0.00000      5.47666      9.94568      4.04995   #    H4   0.17150524   0.31196972   0.22842725
    7 1     5      0.00000      4.41447      7.74509      4.12645   #    H5   0.13445642   0.24053888   0.23274213
    8 1     5      0.00000      1.07747      4.91739      4.21474   #    H6   0.01877012   0.14877697   0.23772179
    9 1     5      0.00000      2.12646      2.69904      4.18196   #    H7   0.05512782   0.07704159   0.23587313
   10 1     5      0.00000      4.28784     15.43670      3.62415   #    H8   0.13236229   0.49078772   0.20441121
   11 1     5      0.00000      5.37516      4.29062      1.81844   #    H9   0.17773750   0.13440930   0.10256470
   12 1     5      0.00000      4.30725      6.49011      1.84270   #   H10   0.14076332   0.20555537   0.10393319
   13 1     5      0.00000      0.97243      9.31274      2.07065   #   H11   0.02459478   0.29637140   0.11678990
   14 1     5      0.00000      2.01692     11.53294      2.00441   #   H12   0.06098727   0.36841131   0.11305390
   15 1     5      0.00000      5.61643      0.64249      7.75412   #   H13   0.15998527   0.00163333   0.43735221
   16 1     5      0.00000      5.58579     14.29094      7.89417   #   H14   0.15844620   0.44314044   0.44525123
   17 1     5      0.00000      3.21744      0.62122      6.98923   #   H15   0.08047272   0.00283529   0.39421029
   18 1     5      0.00000      3.18136     14.26988      7.13080   #   H16   0.07873916   0.44434541   0.40219496
   19 1     8      0.00000     13.71487     14.60123      2.92882   #    C1   0.46104691   0.46545888   0.16519261
   20 1     8      0.00000     12.31310     14.30580      2.82850   #    C2   0.41306259   0.45614257   0.15953453
   21 1     8      0.00000     11.77217     13.09489      2.41733   #    C3   0.39616975   0.41795733   0.13634344
   22 1     8      0.00000     10.37225     13.09490      2.41733   #    C4   0.34781172   0.41795737   0.13634326
   23 1     8      0.00000      9.83132     14.30580      2.82850   #    C5   0.32733353   0.45614262   0.15953426
   24 1     8      0.00000      8.42956     14.60123      2.92881   #    C6   0.27847445   0.46545896   0.16519247
   25 1     8      0.00000      3.83488     10.91133      3.01270   #    C7   0.11935454   0.34579524   0.16992379
   26 1     8      0.00000      4.49711      9.82253      3.60534   #    C8   0.13961849   0.30908161   0.20335002
   27 1     8      0.00000      3.89664      8.56054      3.63884   #    C9   0.11871676   0.26814325   0.20523950
   28 1     8      0.00000      2.62733      8.36307      3.06860   #   C10   0.07737135   0.26315996   0.17307673
   29 1     8      0.00000      2.62909      5.86949      3.06481   #   C11   0.07742430   0.18244251   0.17286291
   30 1     8      0.00000      2.01867      4.78180      3.69708   #   C12   0.05355280   0.14566689   0.20852471
   31 1     8      0.00000      2.61926      3.51954      3.67573   #   C13   0.07438045   0.10485542   0.20732047
   32 1     8      0.00000      3.83950      3.32263      3.00673   #   C14   0.11946581   0.10013454   0.16958696
   33 1     8      0.00000      4.44175      4.41286      2.35363   #   C15   0.14314673   0.13704364   0.13275093
   34 1     8      0.00000      3.83905      5.67396      2.37706   #   C16   0.12223693   0.17781232   0.13407238
   35 1     8      0.00000      1.95817      9.44974      2.49699   #   C17   0.05677552   0.29975273   0.14083648
   36 1     8      0.00000      2.55629     10.71280      2.46164   #   C18   0.07760416   0.34073026   0.13884244
   37 1     7      0.00000      4.96110     15.20909      7.95865   #   C19   0.13659312   0.47270512   0.44888789
   38 1     7      0.00000      3.83500     15.14627      6.92563   #   C20   0.10222723   0.47322465   0.39062286
   39 1     8      0.00000      3.83497     14.97692      5.44528   #   C21   0.10872134   0.47140124   0.30712779
   40 1     8      0.00000      3.83492     14.70161      0.57414   #   C22   0.13009573   0.47452887   0.03238270
   41 1     8      0.00000      3.83942      1.83356      2.95495   #   C23   0.11967559   0.05205547   0.16666667
   42 1     8      0.00000      3.83490     12.40041      3.06470   #   C24   0.11914144   0.39387412   0.17285706
   43 1     1      0.00000     11.07221     15.38010      3.19329   #    S1   0.36860760   0.49002041   0.18010952
   44 1     4      0.00000     14.84438     14.83930      3.00966   #    N1   0.49971173   0.47296654   0.16975215
   45 1     4      0.00000      7.30004     14.83931      3.00965   #    N2   0.23910472   0.47296658   0.16975209
   46 1     3      0.00000      1.98608      7.11578      3.09714   #    O1   0.05508303   0.22270984   0.17468669
   47 1     2      0.00000      4.94697     14.75837      1.07093   #    O2   0.16632983   0.47513859   0.06040336
   48 1     2      0.00000      4.94702     14.92011      4.94845   #    O3   0.14931536   0.47079027   0.27910499
   49 1     2      0.00000      4.95142      1.33379      2.93730   #    O4   0.15816047   0.03591958   0.16567098
   50 1     2      0.00000      4.94697     12.90014      3.08208   #    O5   0.15748469   0.41000928   0.17383731
   51 1     2      0.00000      2.72729      1.33382      2.93733   #    O6   0.08133124   0.03592028   0.16567311
   52 1     2      0.00000      2.72289     14.92015      4.94849   #    O7   0.07248613   0.47079149   0.27910708
   53 1     2      0.00000      2.72284     14.75841      1.07095   #    O8   0.08950068   0.47513980   0.06040455
   54 1     2      0.00000      2.72283     12.90018      3.08211   #    O9   0.08065554   0.41001048   0.17383856
   55 1     6      0.00000      3.49584     15.51612     11.87458   #   Zn1   0.06879504   0.47296539   0.66975648
   56 1     6      0.00000      6.42624     15.51608     11.87454   #   Zn2   0.17002093   0.47296417   0.66975394
   57 1     5      0.00000     13.49300     12.91540     10.99141   #    H1   0.41798082   0.39095318   0.61994308
   58 1     5      0.00000     10.90365     12.91541     10.99140   #    H2   0.32853617   0.39095328   0.61994270
   59 1     5      0.00000      7.31122     14.01864     12.37511   #    H3   0.19837954   0.42324902   0.69798718
   60 1     5      0.00000      6.60277     10.62253     12.91480   #    H4   0.17150524   0.31196972   0.72842725
   61 1     5      0.00000      5.54058      8.42194     12.99130   #    H5   0.13445642   0.24053888   0.73274213
   62 1     5      0.00000      2.20359      5.59423     13.07959   #    H6   0.01877012   0.14877697   0.73772179
   63 1     5      0.00000      3.25258      3.37589     13.04681   #    H7   0.05512782   0.07704159   0.73587313
   64 1     5      0.00000      5.41395     16.11355     12.48900   #    H8   0.13236229   0.49078772   0.70441121
   65 1     5      0.00000      6.50127      4.96747     10.68329   #    H9   0.17773750   0.13440930   0.60256470
   66 1     5      0.00000      5.43336      7.16696     10.70756   #   H10   0.14076332   0.20555537   0.60393319
   67 1     5      0.00000      2.09854      9.98959     10.93550   #   H11   0.02459478   0.29637140   0.61678990
   68 1     5      0.00000      3.14303     12.20978     10.86926   #   H12   0.06098727   0.36841131   0.61305390
   69 1     5      0.00000      6.74254      1.31934     16.61898   #   H13   0.15998527   0.00163333   0.93735221
   70 1     5      0.00000      6.71190     14.96779     16.75902   #   H14   0.15844620   0.44314044   0.94525123
   71 1     5      0.00000      4.34355      1.29806     15.85408   #   H15   0.08047272   0.00283529   0.89421029
   72 1     5      0.00000      4.30747     14.94672     15.99565   #   H16   0.07873916   0.44434541   0.90219496
   73 1     8      0.00000     14.84098     15.27807     11.79367   #    C1   0.46104691   0.46545888   0.66519261
   74 1     8      0.00000     13.43921     14.98264     11.69335   #    C2   0.41306259   0.45614257   0.65953453
   75 1     8      0.00000     12.89828     13.77174     11.28218   #    C3   0.39616975   0.41795733   0.63634344
   76 1     8      0.00000     11.49836     13.77174     11.28218   #    C4   0.34781172   0.41795737   0.63634326
   77 1     8      0.00000     10.95743     14.98264     11.69335   #    C5   0.32733353   0.45614262   0.65953426
   78 1     8      0.00000      9.55567     15.27807     11.79366   #    C6   0.27847445   0.46545896   0.66519247
   79 1     8      0.00000      4.96099     11.58817     11.87755   #    C7   0.11935454   0.34579524   0.66992379
   80 1     8      0.00000      5.62322     10.49937     12.47019   #    C8   0.13961849   0.30908161   0.70335002
   81 1     8      0.00000      5.02275      9.23738     12.50369   #    C9   0.11871676   0.26814325   0.70523950
   82 1     8      0.00000      3.75344      9.03991     11.93345   #   C10   0.07737135   0.26315996   0.67307673
   83 1     8      0.00000      3.75520      6.54633     11.92966   #   C11   0.07742430   0.18244251   0.67286291
   84 1     8      0.00000      3.14478      5.45864     12.56193   #   C12   0.05355280   0.14566689   0.70852471
   85 1     8      0.00000      3.74537      4.19638     12.54058   #   C13   0.07438045   0.10485542   0.70732047
   86 1     8      0.00000      4.96561      3.99948     11.87158   #   C14   0.11946581   0.10013454   0.66958696
   87 1     8      0.00000      5.56786      5.08970     11.21849   #   C15   0.14314673   0.13704364   0.63275093
   88 1     8      0.00000      4.96516      6.35080     11.24191   #   C16   0.12223693   0.17781232   0.63407238
   89 1     8      0.00000      3.08428     10.12659     11.36184   #   C17   0.05677552   0.29975273   0.64083648
   90 1     8      0.00000      3.68240     11.38965     11.32649   #   C18   0.07760416   0.34073026   0.63884244
   91 1     7      0.00000      6.08721     15.88594     16.82350   #   C19   0.13659312   0.47270512   0.94888789
   92 1     7      0.00000      4.96111     15.82311     15.79048   #   C20   0.10222723   0.47322465   0.89062286
   93 1     8      0.00000      4.96108     15.65376     14.31014   #   C21   0.10872134   0.47140124   0.80712779
   94 1     8      0.00000      4.96104     15.37845      9.43899   #   C22   0.13009573   0.47452887   0.53238270
   95 1     8      0.00000      4.96553      2.51041     11.81980   #   C23   0.11967559   0.05205547   0.66666667
   96 1     8      0.00000      4.96101     13.07726     11.92956   #   C24   0.11914144   0.39387412   0.67285706
   97 1     1      0.00000     12.19832     16.05695     12.05814   #    S1   0.36860760   0.49002041   0.68010952
   98 1     4      0.00000     15.97050     15.51615     11.87451   #    N1   0.49971173   0.47296654   0.66975215
   99 1     4      0.00000      8.42615     15.51615     11.87451   #    N2   0.23910472   0.47296658   0.66975209
  100 1     3      0.00000      3.11219      7.79262     11.96199   #    O1   0.05508303   0.22270984   0.67468669
  101 1     2      0.00000      6.07308     15.43522      9.93578   #    O2   0.16632983   0.47513859   0.56040336
  102 1     2      0.00000      6.07313     15.59696     13.81330   #    O3   0.14931536   0.47079027   0.77910499
  103 1     2      0.00000      6.07753      2.01064     11.80215   #    O4   0.15816047   0.03591958   0.66567098
  104 1     2      0.00000      6.07308     13.57699     11.94694   #    O5   0.15748469   0.41000928   0.67383731
  105 1     2      0.00000      3.85340      2.01066     11.80219   #    O6   0.08133124   0.03592028   0.66567311
  106 1     2      0.00000      3.84900     15.59700     13.81334   #    O7   0.07248613   0.47079149   0.77910708
  107 1     2      0.00000      3.84895     15.43526      9.93581   #    O8   0.08950068   0.47513980   0.56040455
  108 1     2      0.00000      3.84894     13.57702     11.94696   #    O9   0.08065554   0.41001048   0.67383856
  109 1     6      0.00000      2.36534     30.28383      3.00973   #   Zn1   0.06879504   0.97296539   0.16975648
  110 1     6      0.00000      5.29574     30.28379      3.00969   #   Zn2   0.17002093   0.97296417   0.16975394
  111 1     5      0.00000     12.36250     27.68311      2.12656   #    H1   0.41798082   0.89095318   0.11994308
  112 1     5      0.00000      9.77315     27.68311      2.12655   #    H2   0.32853617   0.89095328   0.11994270
  113 1     5      0.00000      6.18072     28.78635      3.51025   #    H3   0.19837954   0.92324902   0.19798718
  114 1     5      0.00000      5.47227     25.39024      4.04995   #    H4   0.17150524   0.81196972   0.22842725
  115 1     5      0.00000      4.41008     23.18964      4.12645   #    H5   0.13445642   0.74053888   0.23274213
  116 1     5      0.00000      1.07309     20.36194      4.21474   #    H6   0.01877012   0.64877697   0.23772179
  117 1     5      0.00000      2.12208     18.14360      4.18196   #    H7   0.05512782   0.57704159   0.23587313
  118 1     5      0.00000      4.28345     30.88125      3.62415   #    H8   0.13236229   0.99078772   0.20441121
  119 1     5      0.00000      5.37077     19.73518      1.81844   #    H9   0.17773750   0.63440930   0.10256470
  120 1     5      0.00000      4.30286     21.93467      1.84270   #   H10   0.14076332   0.70555537   0.10393319
  121 1     5      0.00000      0.96804     24.75730      2.07065   #   H11   0.02459478   0.79637140   0.11678990
  122 1     5      0.00000      2.01253     26.97749      2.00441   #   H12   0.06098727   0.86841131   0.11305390
  123 1     5      0.00000      5.61204     16.08704      7.75412   #   H13   0.15998527   0.50163333   0.43735221
  124 1     5      0.00000      5.58140     29.73550      7.89417   #   H14   0.15844620   0.94314044   0.44525123
  125 1     5      0.00000      3.21305     16.06577      6.98923   #   H15   0.08047272   0.50283529   0.39421029
  126 1     5      0.00000      3.17697     29.71443      7.13080   #   H16   0.07873916   0.94434541   0.40219496
  127 1     8      0.00000     13.71048     30.04578      2.92882   #    C1   0.46104691   0.96545888   0.16519261
  128 1     8      0.00000     12.30871     29.75035      2.82850   #    C2   0.41306259   0.95614257   0.15953453
  129 1     8      0.00000     11.76779     28.53945      2.41733   #    C3   0.39616975   0.91795733   0.13634344
  130 1     8      0.00000     10.36786     28.53945      2.41733   #    C4   0.34781172   0.91795737   0.13634326
  131 1     8      0.00000      9.82693     29.75035      2.82850   #    C5   0.32733353   0.95614262   0.15953426
  132 1     8      0.00000      8.42517     30.04578      2.92881   #    C6   0.27847445   0.96545896   0.16519247
  133 1     8      0.00000      3.83049     26.35588      3.01270   #    C7   0.11935454   0.84579524   0.16992379
  134 1     8      0.00000      4.49272     25.26708      3.60534   #    C8   0.13961849   0.80908161   0.20335002
  135 1     8      0.00000      3.89225     24.00509      3.63884   #    C9   0.11871676   0.76814325   0.20523950
  136 1     8      0.00000      2.62294     23.80762      3.06860   #   C10   0.07737135   0.76315996   0.17307673
  137 1     8      0.00000      2.62470     21.31404      3.06481   #   C11   0.07742430   0.68244251   0.17286291
  138 1     8      0.00000      2.01428     20.22635      3.69708   #   C12   0.05355280   0.64566689   0.20852471
  139 1     8      0.00000      2.61487     18.96409      3.67573   #   C13   0.07438045   0.60485542   0.20732047
  140 1     8      0.00000      3.83511     18.76719      3.00673   #   C14   0.11946581   0.60013454   0.16958696
  141 1     8      0.00000      4.43737     19.85741      2.35363   #   C15   0.14314673   0.63704364   0.13275093
  142 1     8      0.00000      3.83466     21.11851      2.37706   #   C16   0.12223693   0.67781232   0.13407238
  143 1     8      0.00000      1.95378     24.89429      2.49699   #   C17   0.05677552   0.79975273   0.14083648
  144 1     8      0.00000      2.55190     26.15735      2.46164   #   C18   0.07760416   0.84073026   0.13884244
  145 1     7      0.00000      4.95671     30.65364      7.95865   #   C19   0.13659312   0.97270512   0.44888789
  146 1     7      0.00000      3.83062     30.59082      6.92563   #   C20   0.10222723   0.97322465   0.39062286
  147 1     8      0.00000      3.83058     30.42147      5.44528   #   C21   0.10872134   0.97140124   0.30712779
  148 1     8      0.00000      3.83054     30.14616      0.57414   #   C22   0.13009573   0.97452887   0.03238270
  149 1     8      0.00000      3.83503     17.27811      2.95495   #   C23   0.11967559   0.55205547   0.16666667
  150 1     8      0.00000      3.83051     27.84497      3.06470   #   C24   0.11914144   0.89387412   0.17285706
  151 1     1      0.00000     11.06782     30.82466      3.19329   #    S1   0.36860760   0.99002041   0.18010952
  152 1     4      0.00000     14.84000     30.28386      3.00966   #    N1   0.49971173   0.97296654   0.16975215
  153 1     4      0.00000      7.29565     30.28386      3.00965   #    N2   0.23910472   0.97296658   0.16975209
  154 1     3      0.00000      1.98169     22.56033      3.09714   #    O1   0.05508303   0.72270984   0.17468669
  155 1     2      0.00000      4.94259     30.20293      1.07093   #    O2   0.16632983   0.97513859   0.06040336
  156 1     2      0.00000      4.94263     30.36466      4.94845   #    O3   0.14931536   0.97079027   0.27910499
  157 1     2      0.00000      4.94703     16.77834      2.93730   #    O4   0.15816047   0.53591958   0.16567098
  158 1     2      0.00000      4.94258     28.34469      3.08208   #    O5   0.15748469   0.91000928   0.17383731
  159 1     2      0.00000      2.72290     16.77837      2.93733   #    O6   0.08133124   0.53592028   0.16567311
  160 1     2      0.00000      2.71850     30.36470      4.94849   #    O7   0.07248613   0.97079149   0.27910708
  161 1     2      0.00000      2.71845     30.20296      1.07095   #    O8   0.08950068   0.97513980   0.06040455
  162 1     2      0.00000      2.71844     28.34473      3.08211   #    O9   0.08065554   0.91001048   0.17383856
  163 1     6      0.00000      3.49146     30.96067     11.87458   #   Zn1   0.06879504   0.97296539   0.66975648
  164 1     6      0.00000      6.42185     30.96063     11.87454   #   Zn2   0.17002093   0.97296417   0.66975394
  165 1     5      0.00000     13.48861     28.35996     10.99141   #    H1   0.41798082   0.89095318   0.61994308
  166 1     5      0.00000     10.89926     28.35996     10.99140   #    H2   0.32853617   0.89095328   0.61994270
  167 1     5      0.00000      7.30683     29.46319     12.37511   #    H3   0.19837954   0.92324902   0.69798718
  168 1     5      0.00000      6.59838     26.06708     12.91480   #    H4   0.17150524   0.81196972   0.72842725
  169 1     5      0.00000      5.53619     23.86649     12.99130   #    H5   0.13445642   0.74053888   0.73274213
  170 1     5      0.00000      2.19920     21.03879     13.07959   #    H6   0.01877012   0.64877697   0.73772179
  171 1     5      0.00000      3.24819     18.82044     13.04681   #    H7   0.05512782   0.57704159   0.73587313
  172 1     5      0.00000      5.40957     31.55810     12.48900   #    H8   0.13236229   0.99078772   0.70441121
  173 1     5      0.00000      6.49689     20.41202     10.68329   #    H9   0.17773750   0.63440930   0.60256470
  174 1     5      0.00000      5.42897     22.61151     10.70756   #   H10   0.14076332   0.70555537   0.60393319
  175 1     5      0.00000      2.09415     25.43414     10.93550   #   H11   0.02459478   0.79637140   0.61678990
  176 1     5      0.00000      3.13864     27.65433     10.86926   #   H12   0.06098727   0.86841131   0.61305390
  177 1     5      0.00000      6.73816     16.76389     16.61898   #   H13   0.15998527   0.50163333   0.93735221
  178 1     5      0.00000      6.70752     30.41234     16.75902   #   H14   0.15844620   0.94314044   0.94525123
  179 1     5      0.00000      4.33916     16.74261     15.85408   #   H15   0.08047272   0.50283529   0.89421029
  180 1     5      0.00000      4.30308     30.39128     15.99565   #   H16   0.07873916   0.94434541   0.90219496
  181 1     8      0.00000     14.83659     30.72262     11.79367   #    C1   0.46104691   0.96545888   0.66519261
  182 1     8      0.00000     13.43483     30.42719     11.69335   #    C2   0.41306259   0.95614257   0.65953453
  183 1     8      0.00000     12.89390     29.21629     11.28218   #    C3   0.39616975   0.91795733   0.63634344
  184 1     8      0.00000     11.49397     29.21629     11.28218   #    C4   0.34781172   0.91795737   0.63634326
  185 1     8      0.00000     10.95304     30.42719     11.69335   #    C5   0.32733353   0.95614262   0.65953426
  186 1     8      0.00000      9.55128     30.72263     11.79366   #    C6   0.27847445   0.96545896   0.66519247
  187 1     8      0.00000      4.95660     27.03273     11.87755   #    C7   0.11935454   0.84579524   0.66992379
  188 1     8      0.00000      5.61883     25.94392     12.47019   #    C8   0.13961849   0.80908161   0.70335002
  189 1     8      0.00000      5.01836     24.68193     12.50369   #    C9   0.11871676   0.76814325   0.70523950
  190 1     8      0.00000      3.74905     24.48446     11.93345   #   C10   0.07737135   0.76315996   0.67307673
  191 1     8      0.00000      3.75081     21.99089     11.92966   #   C11   0.07742430   0.68244251   0.67286291
  192 1     8      0.00000      3.14039     20.90319     12.56193   #   C12   0.05355280   0.64566689   0.70852471
  193 1     8      0.00000      3.74098     19.64093     12.54058   #   C13   0.07438045   0.60485542   0.70732047
  194 1     8      0.00000      4.96122     19.44403     11.87158   #   C14   0.11946581   0.60013454   0.66958696
  195 1     8      0.00000      5.56348     20.53426     11.21849   #   C15   0.14314673   0.63704364   0.63275093
  196 1     8      0.00000      4.96077     21.79535     11.24191   #   C16   0.12223693   0.67781232   0.63407238
  197 1     8      0.00000      3.07989     25.57114     11.36184   #   C17   0.05677552   0.79975273   0.64083648
  198 1     8      0.00000      3.67801     26.83420     11.32649   #   C18   0.07760416   0.84073026   0.63884244
  199 1     7      0.00000      6.08282     31.33049     16.82350   #   C19   0.13659312   0.97270512   0.94888789
  200 1     7      0.00000      4.95673     31.26766     15.79048   #   C20   0.10222723   0.97322465   0.89062286
  201 1     8      0.00000      4.95669     31.09831     14.31014   #   C21   0.10872134   0.97140124   0.80712779
  202 1     8      0.00000      4.95665     30.82301      9.43899   #   C22   0.13009573   0.97452887   0.53238270
  203 1     8      0.00000      4.96114     17.95496     11.81980   #   C23   0.11967559   0.55205547   0.66666667
  204 1     8      0.00000      4.95662     28.52181     11.92956   #   C24   0.11914144   0.89387412   0.67285706
  205 1     1      0.00000     12.19393     31.50150     12.05814   #    S1   0.36860760   0.99002041   0.68010952
  206 1     4      0.00000     15.96611     30.96070     11.87451   #    N1   0.49971173   0.97296654   0.66975215
  207 1     4      0.00000      8.42176     30.96070     11.87451   #    N2   0.23910472   0.97296658   0.66975209
  208 1     3      0.00000      3.10781     23.23718     11.96199   #    O1   0.05508303   0.72270984   0.67468669
  209 1     2      0.00000      6.06870     30.87977      9.93578   #    O2   0.16632983   0.97513859   0.56040336
  210 1     2      0.00000      6.06874     31.04151     13.81330   #    O3   0.14931536   0.97079027   0.77910499
  211 1     2      0.00000      6.07314     17.45519     11.80215   #    O4   0.15816047   0.53591958   0.66567098
  212 1     2      0.00000      6.06869     29.02154     11.94694   #    O5   0.15748469   0.91000928   0.67383731
  213 1     2      0.00000      3.84901     17.45521     11.80219   #    O6   0.08133124   0.53592028   0.66567311
  214 1     2      0.00000      3.84461     31.04155     13.81334   #    O7   0.07248613   0.97079149   0.77910708
  215 1     2      0.00000      3.84456     30.87981      9.93581   #    O8   0.08950068   0.97513980   0.56040455
  216 1     2      0.00000      3.84455     29.02158     11.94696   #    O9   0.08065554   0.91001048   0.67383856
  217 1     6      0.00000     16.84430     14.83928      3.00973   #   Zn1   0.56879504   0.47296539   0.16975648
  218 1     6      0.00000     19.77469     14.83923      3.00969   #   Zn2   0.67002093   0.47296417   0.16975394