Created by Ryther's code on 2025-07-29 22:46:51.573319, modified by xyan11@uic.edu. 

    448 atoms
    528 bonds
    992 angles
    1056 dihedrals
    208 impropers

    7 atom types
    13 bond types
    26 angle types
    5 dihedral types
    2 improper types

0.00000000 21.96725534 xlo xhi
0.00000000 20.60455366 ylo yhi
0.00000000 21.29815109 zlo zhi
0.00522303 -0.01139208 1.65350078 xy xz yz 

Masses 

    1    12.0107  #   C
    2    1.00794  #   H
    3    14.0067  #   N
    4    15.9994  #   O
    5    15.9994  #   O
    6      65.38  #  Zn
    7      65.38  #  Zn

Pair Coeffs

    1       0.10500      3.43085  #  C_R C_R
    2       0.04400      2.57113  #  H_ H_
    3       0.06900      3.26069  #  N_2 N_2
    4       0.06000      3.11815  #  O_2_M O_2_M
    5       0.06000      3.11815  #  O_3_M O_3_M
    6       0.12400      2.46155  #  Zn4+2 Zn4+2
    7       0.06000      2.58361  #  Zn6f3 Zn6f3

Bond Coeffs

    1      54.94924      2.40433  #  O_2_M Zn6f3 bond order=0.5
    2      55.07699      2.48452  #  N_2 Zn6f3 bond order=0.5
    3     103.61325      2.20128  #  N_2 Zn4+2 bond order=0.5
    4      48.90184      1.84943  #  H_ Zn4+2 bond order=0.5
    5     104.44141      2.12294  #  O_2_M Zn4+2 bond order=0.5
    6     100.76218      2.14847  #  O_3_M Zn4+2 bond order=0.5
    7     357.44038      1.08142  #  C_R H_ bond order=1.0
    8     559.99521      0.99025  #  H_ O_3_M bond order=1.0
    9     462.65505      1.37926  #  C_R C_R bond order=1.5
    10    931.53598      1.20133  #  C_R N_2 bond order=3.0
    11    391.66951      1.45800  #  C_R C_R bond order=1.0
    12    714.55744      1.26901  #  C_R O_2_M bond order=1.5
    13    678.02790      1.29140  #  C_R O_3_M bond order=1.5

Angle Coeffs

    1  cosine/periodic         70.47472            1            4  #  N_2 Zn6f3 O_2_M
    2  cosine/periodic         67.02484            1            4  #  O_2_M Zn6f3 O_2_M
    3  cosine/periodic         37.39156            1            4  #  H_ Zn4+2 N_2
    4  cosine/periodic        101.82219            1            4  #  N_2 Zn4+2 O_2_M
    5  cosine/periodic        100.10309            1            4  #  N_2 Zn4+2 O_3_M
    6  cosine/periodic         36.20045            1            4  #  H_ Zn4+2 O_2_M
    7  cosine/periodic         35.40556            1            4  #  H_ Zn4+2 O_3_M
    8  cosine/periodic         14.11273            1            4  #  H_ Zn4+2 H_
    9  cosine/periodic         95.61832            1            4  #  O_2_M Zn4+2 O_3_M
    10 cosine/periodic         97.36576            1            4  #  O_2_M Zn4+2 O_2_M
    11 cosine/periodic         43.63912            1            1  #  O_3_M H_ Zn4+2
    12 cosine/periodic        179.74893           -1            3  #  C_R C_R N_2
    13 cosine/periodic        111.29751           -1            3  #  C_R C_R C_R
    14 cosine/periodic         57.28902           -1            3  #  C_R C_R H_
    15 cosine/periodic        102.18328           -1            3  #  C_R C_R C_R
    16 cosine/periodic        137.71425           -1            3  #  C_R C_R O_2_M
    17 cosine/periodic        206.77843           -1            3  #  O_2_M C_R O_2_M
    18 cosine/periodic        134.57449           -1            3  #  C_R C_R O_3_M
    19 cosine/periodic        201.38050           -1            3  #  O_2_M C_R O_3_M
    20 fourier                 48.02888      0.36401      0.41847      0.28800  #  C_R N_2 Zn6f3
    21 fourier                 84.89470      0.36401      0.41847      0.28800  #  C_R N_2 Zn4+2
    22 cosine/periodic         37.72922           -1            3  #  C_R O_2_M Zn4+2
    23 fourier                 41.31289      0.30023      0.26733      0.26675  #  H_ O_3_M Zn4+2
    24 fourier                 99.02913      0.30023      0.26733      0.26675  #  C_R O_3_M Zn4+2
    25 fourier                203.65891      0.30023      0.26733      0.26675  #  C_R O_3_M H_
    26 cosine/periodic         21.77718           -1            3  #  C_R O_2_M Zn6f3

Dihedral Coeffs

    1       6.73711           -1            2  #  X C_R C_R X bond order=1.5
    2      27.96100           -1            2  #  X C_R N_2 X bond order=3.0
    3       1.25000           -1            2  #  X C_R C_R X bond order=1.0
    4       6.73711           -1            2  #  X C_R O_2_M X bond order=1.5
    5       0.31957           -1            2  #  X C_R O_3_M X bond order=1.5

Improper Coeffs

    1       2.00000      1.00000     -1.00000      0.00000            1  #  C_R X X X O_2 present=False
    2      16.66667      1.00000     -1.00000      0.00000            1  #  C_R X X X O_2 present=True

Atoms # a, b, c, alpha, beta, gamma: 21.9672553402, 20.6045543238, 21.3622432009, 85.5607048212, 90.0305547582, 89.9854761351 $$$atoms$$$

    1 1     7      0.00000      3.60562      4.84472      6.59653   #   Zn1   0.16424694   0.21027371   0.30972323
    2 1     6      0.00000      6.53602      4.84403      6.59811   #   Zn2   0.29764529   0.21023389   0.30979744
    3 1     2      0.00000      2.07930      3.55898      9.77473   #    H1   0.09486009   0.13589777   0.45894758
    4 1     2      0.00000      0.91538      1.92665      1.11701   #    H2   0.04167632   0.08929721   0.05244641
    5 1     2      0.00000      9.81530      1.44156      2.31625   #    H3   0.44685696   0.06123570   0.10875371
    6 1     2      0.00000      7.35500      1.41139      2.39077   #    H4   0.33486061   0.05949099   0.11225254
    7 1     2      0.00000      6.03497      2.19551      0.45250   #    H5   0.27471159   0.10484941   0.02124599
    8 1     2      0.00000      7.14214      3.83894      9.08282   #    H6   0.32531144   0.15209217   0.42646053
    9 1     2      0.00000      3.46320      9.99592      7.35385   #    H8   0.15772313   0.45742326   0.34528111
   10 1     2      0.00000      6.85301      7.85947      5.75976   #   H10   0.31201954   0.35974100   0.27043451
   11 1     2      0.00000      7.95285      9.99479      5.24288   #   H11   0.36204910   0.46532194   0.24616593
   12 1     2      0.00000      6.85148      1.82839      5.75975   #   H12   0.31201955   0.06703483   0.27043444
   13 1     2      0.00000      6.03942      5.53489      5.80464   #   H13   0.27501111   0.24675339   0.27254195
   14 1     2      0.00000      3.36530      3.20674      2.59093   #   H14   0.15322463   0.14587042   0.12165058
   15 1     2      0.00000      3.36660      3.01783      0.15758   #   H15   0.15322462   0.14587045   0.00739856
   16 1     2      0.00000      6.77578      6.48151     10.60418   #   H16   0.30864191   0.27461132   0.49789223
   17 1     2      0.00000      6.78017      5.84361      2.38762   #   H17   0.30864188   0.27461130   0.11210442
   18 1     2      0.00000      6.03864      5.64904      7.27497   #   H18   0.27501130   0.24675316   0.34157743
   19 1     1      0.00000      1.01538      4.47192      7.51809   #    C1   0.04636040   0.18870792   0.35299285
   20 1     1      0.00000      0.27830      4.00577      8.67039   #    C2   0.01284163   0.16174263   0.40709600
   21 1     1      0.00000      0.99557      3.55539      9.78365   #    C3   0.04552663   0.13568987   0.45936618
   22 1     1      0.00000      0.33460      2.26980      0.26883   #    C4   0.01521231   0.10914698   0.01262241
   23 1     1      0.00000      9.91855      2.25349      0.30922   #    C5   0.45149705   0.10820326   0.01451883
   24 1     1      0.00000      9.25507      1.78943      1.45633   #    C6   0.42132800   0.08135913   0.06837831
   25 1     1      0.00000      7.86056      1.77032      1.50354   #    C7   0.35784812   0.08025383   0.07059497
   26 1     1      0.00000      7.11645      2.21270      0.41002   #    C8   0.32394197   0.10584420   0.01925142
   27 1     1      0.00000      7.75493      3.50439      9.90984   #    C9   0.35323176   0.13273916   0.46529107
   28 1     1      0.00000      9.16518      3.53308      9.83892   #   C10   0.41742749   0.13439873   0.46196115
   29 1     1      0.00000      9.84971      3.99902      8.68709   #   C11   0.44855475   0.16135234   0.40788016
   30 1     1      0.00000      9.11864      4.46866      7.52616   #   C12   0.41523969   0.18851949   0.35337136
   31 1     1      0.00000      5.06989      0.91645      6.59733   #   C13   0.23094904   0.01961989   0.30976048
   32 1     1      0.00000      4.44320      9.99568      6.89307   #   C14   0.20232317   0.45914735   0.32364641
   33 1     1      0.00000      5.07188      8.77231      6.59733   #   C15   0.23094901   0.40088801   0.30976049
   34 1     1      0.00000      6.34384      8.78466      5.99927   #   C16   0.28883608   0.40374098   0.28168041
   35 1     1      0.00000      6.97326      9.99503      5.70347   #   C17   0.31746745   0.46359849   0.26779177
   36 1     1      0.00000      6.34184      0.90345      5.99927   #   C18   0.28883607   0.02124245   0.28168037
   37 1     1      0.00000      5.07298      4.54034      2.68118   #   C19   0.23094905   0.21025395   0.12588787
   38 1     1      0.00000      4.11600      3.74585      2.02656   #   C20   0.18737782   0.17416144   0.09515170
   39 1     1      0.00000      4.11675      3.63765      0.63278   #   C21   0.18737778   0.17416148   0.02971063
   40 1     1      0.00000      5.06879      5.14841     10.51347   #   C22   0.23094900   0.21025398   0.49363309
   41 1     1      0.00000      6.03067      5.11554      0.51901   #   C23   0.27448426   0.24631658   0.02436894
   42 1     1      0.00000      6.02993      5.22375      1.91290   #   C24   0.27448426   0.24631657   0.08981509
   43 1     1      0.00000      5.06954      4.98019      9.03300   #   C25   0.23094766   0.20766777   0.42412137
   44 1     1      0.00000      5.07214      4.70858      4.16165   #   C26   0.23094603   0.21284065   0.19539936
   45 1     1      0.00000      5.07146      7.28326      6.54418   #   C27   0.23094590   0.32882022   0.30726533
   46 1     1      0.00000      5.07021      2.40549      6.65046   #   C28   0.23094775   0.09168741   0.31225544
   47 1     3      0.00000      1.60571      4.84520      6.59535   #    N1   0.07320638   0.21030137   0.30966754
   48 1     3      0.00000      8.53593      4.84365      6.59919   #    N2   0.38868587   0.21021154   0.30984801
   49 1     4      0.00000      6.18392      4.76472      4.65910   #    O1   0.28156899   0.21369082   0.21875621
   50 1     4      0.00000      6.18186      4.92351      8.53674   #    O2   0.28157096   0.20678688   0.40082066
   51 1     5      0.00000      6.18339      6.78327      6.52700   #    O3   0.28156885   0.30461902   0.30645858
   52 1     4      0.00000      6.18238      2.90496      6.66884   #    O4   0.28157106   0.11585869   0.31311825
   53 1     4      0.00000      3.95926      6.78379      6.52581   #    O5   0.18032113   0.30464891   0.30640243
   54 1     4      0.00000      3.95772      4.92405      8.53554   #    O6   0.18032324   0.20681755   0.40076447
   55 1     4      0.00000      3.95979      4.76525      4.65789   #    O7   0.18032128   0.21372147   0.21869927
   56 1     4      0.00000      3.95825      2.90550      6.66763   #    O8   0.18032334   0.11588933   0.31306135
   57 1     7      0.00000      3.59993      5.67147     17.24561   #   Zn1   0.16424694   0.21027371   0.80972323
   58 1     6      0.00000      6.53032      5.67078     17.24719   #   Zn2   0.29764529   0.21023389   0.80979744
   59 1     2      0.00000      2.07360      4.38573     20.42381   #    H1   0.09486009   0.13589777   0.95894758
   60 1     2      0.00000      0.90969      2.75340     11.76609   #    H2   0.04167632   0.08929721   0.55244641
   61 1     2      0.00000      9.80961      2.26831     12.96533   #    H3   0.44685696   0.06123570   0.60875371
   62 1     2      0.00000      7.34930      2.23815     13.03985   #    H4   0.33486061   0.05949099   0.61225254
   63 1     2      0.00000      6.02927      3.02226     11.10158   #    H5   0.27471159   0.10484941   0.52124599
   64 1     2      0.00000      7.13644      4.66569     19.73190   #    H6   0.32531144   0.15209217   0.92646053
   65 1     2      0.00000      3.45750     10.82268     18.00292   #    H8   0.15772313   0.45742326   0.84528111
   66 1     2      0.00000      6.84732      8.68622     16.40883   #   H10   0.31201954   0.35974100   0.77043451
   67 1     2      0.00000      7.94716     10.82154     15.89195   #   H11   0.36204910   0.46532194   0.74616593
   68 1     2      0.00000      6.84579      2.65514     16.40883   #   H12   0.31201955   0.06703483   0.77043444
   69 1     2      0.00000      6.03373      6.36164     16.45372   #   H13   0.27501111   0.24675339   0.77254195
   70 1     2      0.00000      3.35960      4.03349     13.24001   #   H14   0.15322463   0.14587042   0.62165058
   71 1     2      0.00000      3.36091      3.84458     10.80665   #   H15   0.15322462   0.14587045   0.50739856
   72 1     2      0.00000      6.77008      7.30826     21.25326   #   H16   0.30864191   0.27461132   0.99789223
   73 1     2      0.00000      6.77448      6.67036     13.03669   #   H17   0.30864188   0.27461130   0.61210442
   74 1     2      0.00000      6.03294      6.47579     17.92404   #   H18   0.27501130   0.24675316   0.84157743
   75 1     1      0.00000      1.00968      5.29867     18.16717   #    C1   0.04636040   0.18870792   0.85299285
   76 1     1      0.00000      0.27261      4.83252     19.31947   #    C2   0.01284163   0.16174263   0.90709600
   77 1     1      0.00000      0.98987      4.38214     20.43273   #    C3   0.04552663   0.13568987   0.95936618
   78 1     1      0.00000      0.32890      3.09655     10.91791   #    C4   0.01521231   0.10914698   0.51262241
   79 1     1      0.00000      9.91285      3.08024     10.95830   #    C5   0.45149705   0.10820326   0.51451883
   80 1     1      0.00000      9.24937      2.61618     12.10541   #    C6   0.42132800   0.08135913   0.56837831
   81 1     1      0.00000      7.85486      2.59707     12.15262   #    C7   0.35784812   0.08025383   0.57059497
   82 1     1      0.00000      7.11075      3.03946     11.05910   #    C8   0.32394197   0.10584420   0.51925142
   83 1     1      0.00000      7.74923      4.33114     20.55892   #    C9   0.35323176   0.13273916   0.96529107
   84 1     1      0.00000      9.15948      4.35983     20.48799   #   C10   0.41742749   0.13439873   0.96196115
   85 1     1      0.00000      9.84402      4.82577     19.33617   #   C11   0.44855475   0.16135234   0.90788016
   86 1     1      0.00000      9.11294      5.29541     18.17523   #   C12   0.41523969   0.18851949   0.85337136
   87 1     1      0.00000      5.06419      1.74320     17.24640   #   C13   0.23094904   0.01961989   0.80976048
   88 1     1      0.00000      4.43750     10.82243     17.54215   #   C14   0.20232317   0.45914735   0.82364641
   89 1     1      0.00000      5.06618      9.59906     17.24640   #   C15   0.23094901   0.40088801   0.80976049
   90 1     1      0.00000      6.33814      9.61141     16.64835   #   C16   0.28883608   0.40374098   0.78168041
   91 1     1      0.00000      6.96756     10.82178     16.35255   #   C17   0.31746745   0.46359849   0.76779177
   92 1     1      0.00000      6.33614      1.73020     16.64835   #   C18   0.28883607   0.02124245   0.78168037
   93 1     1      0.00000      5.06728      5.36709     13.33025   #   C19   0.23094905   0.21025395   0.62588787
   94 1     1      0.00000      4.11031      4.57260     12.67563   #   C20   0.18737782   0.17416144   0.59515170
   95 1     1      0.00000      4.11105      4.46440     11.28186   #   C21   0.18737778   0.17416148   0.52971063
   96 1     1      0.00000      5.06309      5.97516     21.16255   #   C22   0.23094900   0.21025398   0.99363309
   97 1     1      0.00000      6.02498      5.94229     11.16809   #   C23   0.27448426   0.24631658   0.52436894
   98 1     1      0.00000      6.02423      6.05050     12.56197   #   C24   0.27448426   0.24631657   0.58981509
   99 1     1      0.00000      5.06384      5.80694     19.68208   #   C25   0.23094766   0.20766777   0.92412137
  100 1     1      0.00000      5.06644      5.53533     14.81072   #   C26   0.23094603   0.21284065   0.69539936
  101 1     1      0.00000      5.06577      8.11001     17.19326   #   C27   0.23094590   0.32882022   0.80726533
  102 1     1      0.00000      5.06451      3.23224     17.29954   #   C28   0.23094775   0.09168741   0.81225544
  103 1     3      0.00000      1.60002      5.67195     17.24442   #    N1   0.07320638   0.21030137   0.80966754
  104 1     3      0.00000      8.53023      5.67040     17.24827   #    N2   0.38868587   0.21021154   0.80984801
  105 1     4      0.00000      6.17823      5.59147     15.30818   #    O1   0.28156899   0.21369082   0.71875621
  106 1     4      0.00000      6.17616      5.75026     19.18581   #    O2   0.28157096   0.20678688   0.90082066
  107 1     5      0.00000      6.17770      7.61002     17.17608   #    O3   0.28156885   0.30461902   0.80645858
  108 1     4      0.00000      6.17669      3.73171     17.31792   #    O4   0.28157106   0.11585869   0.81311825
  109 1     4      0.00000      3.95356      7.61054     17.17488   #    O5   0.18032113   0.30464891   0.80640243
  110 1     4      0.00000      3.95203      5.75080     19.18462   #    O6   0.18032324   0.20681755   0.90076447
  111 1     4      0.00000      3.95409      5.59201     15.30697   #    O7   0.18032128   0.21372147   0.71869927
  112 1     4      0.00000      3.95255      3.73225     17.31670   #    O8   0.18032334   0.11588933   0.81306135
  113 1     7      0.00000      3.60824     15.14700      6.59653   #   Zn1   0.16424694   0.71027371   0.30972323
  114 1     6      0.00000      6.53863     15.14630      6.59811   #   Zn2   0.29764529   0.71023389   0.30979744
  115 1     2      0.00000      2.08191     13.86126      9.77473   #    H1   0.09486009   0.63589777   0.45894758
  116 1     2      0.00000      0.91799     12.22893      1.11701   #    H2   0.04167632   0.58929721   0.05244641
  117 1     2      0.00000      9.81791     11.74384      2.31625   #    H3   0.44685696   0.56123570   0.10875371
  118 1     2      0.00000      7.35761     11.71367      2.39077   #    H4   0.33486061   0.55949099   0.11225254
  119 1     2      0.00000      6.03758     12.49778      0.45250   #    H5   0.27471159   0.60484941   0.02124599
  120 1     2      0.00000      7.14475     14.14122      9.08282   #    H6   0.32531144   0.65209217   0.42646053
  121 1     2      0.00000      3.46581     20.29820      7.35385   #    H8   0.15772313   0.95742326   0.34528111
  122 1     2      0.00000      6.85562     18.16174      5.75976   #   H10   0.31201954   0.85974100   0.27043451
  123 1     2      0.00000      7.95546     20.29706      5.24288   #   H11   0.36204910   0.96532194   0.24616593
  124 1     2      0.00000      6.85409     12.13066      5.75975   #   H12   0.31201955   0.56703483   0.27043444
  125 1     2      0.00000      6.04203     15.83717      5.80464   #   H13   0.27501111   0.74675339   0.27254195
  126 1     2      0.00000      3.36791     13.50902      2.59093   #   H14   0.15322463   0.64587042   0.12165058
  127 1     2      0.00000      3.36921     13.32011      0.15758   #   H15   0.15322462   0.64587045   0.00739856
  128 1     2      0.00000      6.77839     16.78379     10.60418   #   H16   0.30864191   0.77461132   0.49789223
  129 1     2      0.00000      6.78278     16.14588      2.38762   #   H17   0.30864188   0.77461130   0.11210442
  130 1     2      0.00000      6.04125     15.95131      7.27497   #   H18   0.27501130   0.74675316   0.34157743
  131 1     1      0.00000      1.01799     14.77419      7.51809   #    C1   0.04636040   0.68870792   0.35299285
  132 1     1      0.00000      0.28091     14.30804      8.67039   #    C2   0.01284163   0.66174263   0.40709600
  133 1     1      0.00000      0.99818     13.85767      9.78365   #    C3   0.04552663   0.63568987   0.45936618
  134 1     1      0.00000      0.33721     12.57207      0.26883   #    C4   0.01521231   0.60914698   0.01262241
  135 1     1      0.00000      9.92116     12.55576      0.30922   #    C5   0.45149705   0.60820326   0.01451883
  136 1     1      0.00000      9.25768     12.09171      1.45633   #    C6   0.42132800   0.58135913   0.06837831
  137 1     1      0.00000      7.86317     12.07260      1.50354   #    C7   0.35784812   0.58025383   0.07059497
  138 1     1      0.00000      7.11906     12.51498      0.41002   #    C8   0.32394197   0.60584420   0.01925142
  139 1     1      0.00000      7.75754     13.80667      9.90984   #    C9   0.35323176   0.63273916   0.46529107
  140 1     1      0.00000      9.16779     13.83536      9.83892   #   C10   0.41742749   0.63439873   0.46196115
  141 1     1      0.00000      9.85232     14.30130      8.68709   #   C11   0.44855475   0.66135234   0.40788016
  142 1     1      0.00000      9.12125     14.77094      7.52616   #   C12   0.41523969   0.68851949   0.35337136
  143 1     1      0.00000      5.07250     11.21873      6.59733   #   C13   0.23094904   0.51961989   0.30976048
  144 1     1      0.00000      4.44581     20.29795      6.89307   #   C14   0.20232317   0.95914735   0.32364641
  145 1     1      0.00000      5.07449     19.07458      6.59733   #   C15   0.23094901   0.90088801   0.30976049
  146 1     1      0.00000      6.34645     19.08694      5.99927   #   C16   0.28883608   0.90374098   0.28168041
  147 1     1      0.00000      6.97587     20.29731      5.70347   #   C17   0.31746745   0.96359849   0.26779177
  148 1     1      0.00000      6.34445     11.20573      5.99927   #   C18   0.28883607   0.52124245   0.28168037
  149 1     1      0.00000      5.07559     14.84262      2.68118   #   C19   0.23094905   0.71025395   0.12588787
  150 1     1      0.00000      4.11861     14.04813      2.02656   #   C20   0.18737782   0.67416144   0.09515170
  151 1     1      0.00000      4.11936     13.93992      0.63278   #   C21   0.18737778   0.67416148   0.02971063
  152 1     1      0.00000      5.07140     15.45069     10.51347   #   C22   0.23094900   0.71025398   0.49363309
  153 1     1      0.00000      6.03329     15.41781      0.51901   #   C23   0.27448426   0.74631658   0.02436894
  154 1     1      0.00000      6.03254     15.52603      1.91290   #   C24   0.27448426   0.74631657   0.08981509
  155 1     1      0.00000      5.07215     15.28246      9.03300   #   C25   0.23094766   0.70766777   0.42412137
  156 1     1      0.00000      5.07475     15.01086      4.16165   #   C26   0.23094603   0.71284065   0.19539936
  157 1     1      0.00000      5.07408     17.58553      6.54418   #   C27   0.23094590   0.82882022   0.30726533
  158 1     1      0.00000      5.07282     12.70777      6.65046   #   C28   0.23094775   0.59168741   0.31225544
  159 1     3      0.00000      1.60833     15.14748      6.59535   #    N1   0.07320638   0.71030137   0.30966754
  160 1     3      0.00000      8.53854     15.14593      6.59919   #    N2   0.38868587   0.71021154   0.30984801
  161 1     4      0.00000      6.18653     15.06699      4.65910   #    O1   0.28156899   0.71369082   0.21875621
  162 1     4      0.00000      6.18447     15.22579      8.53674   #    O2   0.28157096   0.70678688   0.40082066
  163 1     5      0.00000      6.18601     17.08555      6.52700   #    O3   0.28156885   0.80461902   0.30645858
  164 1     4      0.00000      6.18499     13.20723      6.66884   #    O4   0.28157106   0.61585869   0.31311825
  165 1     4      0.00000      3.96187     17.08607      6.52581   #    O5   0.18032113   0.80464891   0.30640243
  166 1     4      0.00000      3.96033     15.22632      8.53554   #    O6   0.18032324   0.70681755   0.40076447
  167 1     4      0.00000      3.96240     15.06753      4.65789   #    O7   0.18032128   0.71372147   0.21869927
  168 1     4      0.00000      3.96086     13.20777      6.66763   #    O8   0.18032334   0.61588933   0.31306135
  169 1     7      0.00000      3.60254     15.97375     17.24561   #   Zn1   0.16424694   0.71027371   0.80972323
  170 1     6      0.00000      6.53293     15.97305     17.24719   #   Zn2   0.29764529   0.71023389   0.80979744
  171 1     2      0.00000      2.07621     14.68801     20.42381   #    H1   0.09486009   0.63589777   0.95894758
  172 1     2      0.00000      0.91230     13.05568     11.76609   #    H2   0.04167632   0.58929721   0.55244641
  173 1     2      0.00000      9.81222     12.57059     12.96533   #    H3   0.44685696   0.56123570   0.60875371
  174 1     2      0.00000      7.35192     12.54042     13.03985   #    H4   0.33486061   0.55949099   0.61225254
  175 1     2      0.00000      6.03188     13.32453     11.10158   #    H5   0.27471159   0.60484941   0.52124599
  176 1     2      0.00000      7.13905     14.96797     19.73190   #    H6   0.32531144   0.65209217   0.92646053
  177 1     2      0.00000      3.46012     21.12495     18.00292   #    H8   0.15772313   0.95742326   0.84528111
  178 1     2      0.00000      6.84993     18.98849     16.40883   #   H10   0.31201954   0.85974100   0.77043451
  179 1     2      0.00000      7.94977     21.12381     15.89195   #   H11   0.36204910   0.96532194   0.74616593
  180 1     2      0.00000      6.84840     12.95741     16.40883   #   H12   0.31201955   0.56703483   0.77043444
  181 1     2      0.00000      6.03634     16.66392     16.45372   #   H13   0.27501111   0.74675339   0.77254195
  182 1     2      0.00000      3.36222     14.33577     13.24001   #   H14   0.15322463   0.64587042   0.62165058
  183 1     2      0.00000      3.36352     14.14686     10.80665   #   H15   0.15322462   0.64587045   0.50739856
  184 1     2      0.00000      6.77269     17.61054     21.25326   #   H16   0.30864191   0.77461132   0.99789223
  185 1     2      0.00000      6.77709     16.97264     13.03669   #   H17   0.30864188   0.77461130   0.61210442
  186 1     2      0.00000      6.03556     16.77806     17.92404   #   H18   0.27501130   0.74675316   0.84157743
  187 1     1      0.00000      1.01229     15.60094     18.16717   #    C1   0.04636040   0.68870792   0.85299285
  188 1     1      0.00000      0.27522     15.13480     19.31947   #    C2   0.01284163   0.66174263   0.90709600
  189 1     1      0.00000      0.99249     14.68442     20.43273   #    C3   0.04552663   0.63568987   0.95936618
  190 1     1      0.00000      0.33151     13.39882     10.91791   #    C4   0.01521231   0.60914698   0.51262241
  191 1     1      0.00000      9.91547     13.38251     10.95830   #    C5   0.45149705   0.60820326   0.51451883
  192 1     1      0.00000      9.25198     12.91846     12.10541   #    C6   0.42132800   0.58135913   0.56837831
  193 1     1      0.00000      7.85747     12.89935     12.15262   #    C7   0.35784812   0.58025383   0.57059497
  194 1     1      0.00000      7.11337     13.34173     11.05910   #    C8   0.32394197   0.60584420   0.51925142
  195 1     1      0.00000      7.75184     14.63342     20.55892   #    C9   0.35323176   0.63273916   0.96529107
  196 1     1      0.00000      9.16209     14.66211     20.48799   #   C10   0.41742749   0.63439873   0.96196115
  197 1     1      0.00000      9.84663     15.12805     19.33617   #   C11   0.44855475   0.66135234   0.90788016
  198 1     1      0.00000      9.11555     15.59769     18.17523   #   C12   0.41523969   0.68851949   0.85337136
  199 1     1      0.00000      5.06681     12.04548     17.24640   #   C13   0.23094904   0.51961989   0.80976048
  200 1     1      0.00000      4.44011     21.12470     17.54215   #   C14   0.20232317   0.95914735   0.82364641
  201 1     1      0.00000      5.06880     19.90133     17.24640   #   C15   0.23094901   0.90088801   0.80976049
  202 1     1      0.00000      6.34075     19.91369     16.64835   #   C16   0.28883608   0.90374098   0.78168041
  203 1     1      0.00000      6.97017     21.12406     16.35255   #   C17   0.31746745   0.96359849   0.76779177
  204 1     1      0.00000      6.33875     12.03248     16.64835   #   C18   0.28883607   0.52124245   0.78168037
  205 1     1      0.00000      5.06990     15.66937     13.33025   #   C19   0.23094905   0.71025395   0.62588787
  206 1     1      0.00000      4.11292     14.87488     12.67563   #   C20   0.18737782   0.67416144   0.59515170
  207 1     1      0.00000      4.11366     14.76667     11.28186   #   C21   0.18737778   0.67416148   0.52971063
  208 1     1      0.00000      5.06571     16.27744     21.16255   #   C22   0.23094900   0.71025398   0.99363309
  209 1     1      0.00000      6.02759     16.24456     11.16809   #   C23   0.27448426   0.74631658   0.52436894
  210 1     1      0.00000      6.02684     16.35278     12.56197   #   C24   0.27448426   0.74631657   0.58981509
  211 1     1      0.00000      5.06645     16.10921     19.68208   #   C25   0.23094766   0.70766777   0.92412137
  212 1     1      0.00000      5.06905     15.83761     14.81072   #   C26   0.23094603   0.71284065   0.69539936
  213 1     1      0.00000      5.06838     18.41228     17.19326   #   C27   0.23094590   0.82882022   0.80726533
  214 1     1      0.00000      5.06713     13.53452     17.29954   #   C28   0.23094775   0.59168741   0.81225544
  215 1     3      0.00000      1.60263     15.97423     17.24442   #    N1   0.07320638   0.71030137   0.80966754
  216 1     3      0.00000      8.53285     15.97268     17.24827   #    N2   0.38868587   0.71021154   0.80984801
  217 1     4      0.00000      6.18084     15.89374     15.30818   #    O1   0.28156899   0.71369082   0.71875621
  218 1     4      0.00000      6.17877     16.05254     19.18581   #    O2   0.28157096   0.70678688   0.90082066
  219 1     5      0.00000      6.18031     17.91230     17.17608   #    O3   0.28156885   0.80461902   0.80645858