Created by Ryther's code on 2025-07-29 22:46:53.373937, modified by xyan11@uic.edu. 

    528 atoms
    616 bonds
    1168 angles
    1152 dihedrals
    240 impropers

    7 atom types
    16 bond types
    35 angle types
    6 dihedral types
    2 improper types

0.00000000 30.52049269 xlo xhi
0.00000000 30.98178313 ylo yhi
0.00000000 29.72682262 zlo zhi
0.17674384 -1.47190449 3.66565275 xy xz yz 

Masses 

    1    12.0107  #   C
    2    1.00794  #   H
    3    14.0067  #   N
    4    15.9994  #   O
    5    15.9994  #   O
    6      65.38  #  Zn
    7      65.38  #  Zn

Pair Coeffs

    1       0.10500      3.43085  #  C_R C_R
    2       0.04400      2.57113  #  H_ H_
    3       0.06900      3.26069  #  N_2 N_2
    4       0.06000      3.11815  #  O_2_M O_2_M
    5       0.06000      3.11815  #  O_3_M O_3_M
    6       0.12400      2.46155  #  Zn4+2 Zn4+2
    7       0.06000      2.58361  #  Zn6f3 Zn6f3

Bond Coeffs

    1     104.44141      2.12294  #  O_2_M Zn4+2 bond order=0.5
    2     103.61325      2.20128  #  N_2 Zn4+2 bond order=0.5
    3      48.90184      1.84943  #  H_ Zn4+2 bond order=0.5
    4     100.76218      2.14847  #  O_3_M Zn4+2 bond order=0.5
    5      54.94924      2.40433  #  O_2_M Zn6f3 bond order=0.5
    6      55.07699      2.48452  #  N_2 Zn6f3 bond order=0.5
    7      24.34887      2.13340  #  H_ Zn6f3 bond order=0.5
    8     357.44038      1.08142  #  C_R H_ bond order=1.0
    9      97.41657      1.20000  #  H_ H_ bond order=1.0
    10    559.99521      0.99025  #  H_ O_3_M bond order=1.0
    11    462.65505      1.37926  #  C_R C_R bond order=1.5
    12    931.53598      1.20133  #  C_R N_2 bond order=3.0
    13    523.75938      1.32339  #  C_R C_R bond order=2.0
    14    391.66951      1.45800  #  C_R C_R bond order=1.0
    15    714.55744      1.26901  #  C_R O_2_M bond order=1.5
    16    678.02790      1.29140  #  C_R O_3_M bond order=1.5

Angle Coeffs

    1  cosine/periodic        101.82219            1            4  #  N_2 Zn4+2 O_2_M
    2  cosine/periodic         97.36576            1            4  #  O_2_M Zn4+2 O_2_M
    3  cosine/periodic         36.20045            1            4  #  H_ Zn4+2 O_2_M
    4  cosine/periodic         95.61832            1            4  #  O_2_M Zn4+2 O_3_M
    5  cosine/periodic         37.39156            1            4  #  H_ Zn4+2 N_2
    6  cosine/periodic        100.10309            1            4  #  N_2 Zn4+2 O_3_M
    7  cosine/periodic         35.40556            1            4  #  H_ Zn4+2 O_3_M
    8  cosine/periodic         14.11273            1            4  #  H_ Zn4+2 H_
    9  cosine/periodic         67.02484            1            4  #  O_2_M Zn6f3 O_2_M
    10 cosine/periodic         70.47472            1            4  #  N_2 Zn6f3 O_2_M
    11 cosine/periodic         24.38538            1            4  #  H_ Zn6f3 O_2_M
    12 cosine/periodic         25.39208            1            4  #  H_ Zn6f3 N_2
    13 cosine/periodic          6.87673            1            1  #  Zn4+2 H_ Zn6f3
    14 cosine/periodic         10.90893            1            1  #  H_ H_ Zn4+2
    15 cosine/periodic          6.38313            1            1  #  H_ H_ Zn6f3
    16 cosine/periodic         43.63912            1            1  #  O_3_M H_ Zn4+2
    17 cosine/periodic         51.75363            1            1  #  H_ H_ O_3_M
    18 cosine/periodic        179.74893           -1            3  #  C_R C_R N_2
    19 cosine/periodic         57.28902           -1            3  #  C_R C_R H_
    20 cosine/periodic         61.73740           -1            3  #  C_R C_R H_
    21 cosine/periodic        118.27773           -1            3  #  C_R C_R C_R
    22 cosine/periodic         51.62857           -1            3  #  C_R C_R H_
    23 cosine/periodic        102.18328           -1            3  #  C_R C_R C_R
    24 cosine/periodic        111.29751           -1            3  #  C_R C_R C_R
    25 cosine/periodic        137.71425           -1            3  #  C_R C_R O_2_M
    26 cosine/periodic        206.77843           -1            3  #  O_2_M C_R O_2_M
    27 cosine/periodic        134.57449           -1            3  #  C_R C_R O_3_M
    28 cosine/periodic        201.38050           -1            3  #  O_2_M C_R O_3_M
    29 fourier                 84.89470      0.36401      0.41847      0.28800  #  C_R N_2 Zn4+2
    30 fourier                 48.02888      0.36401      0.41847      0.28800  #  C_R N_2 Zn6f3
    31 cosine/periodic         21.77718           -1            3  #  C_R O_2_M Zn6f3
    32 fourier                 41.31289      0.30023      0.26733      0.26675  #  H_ O_3_M Zn4+2
    33 fourier                 99.02913      0.30023      0.26733      0.26675  #  C_R O_3_M Zn4+2
    34 fourier                203.65891      0.30023      0.26733      0.26675  #  C_R O_3_M H_
    35 cosine/periodic         37.72922           -1            3  #  C_R O_2_M Zn4+2

Dihedral Coeffs

    1       6.73711           -1            2  #  X C_R C_R X bond order=1.5
    2      27.96100           -1            2  #  X C_R N_2 X bond order=3.0
    3       4.87169           -1            2  #  X C_R C_R X bond order=2.0
    4       1.25000           -1            2  #  X C_R C_R X bond order=1.0
    5       6.73711           -1            2  #  X C_R O_2_M X bond order=1.5
    6       0.31957           -1            2  #  X C_R O_3_M X bond order=1.5

Improper Coeffs

    1       2.00000      1.00000     -1.00000      0.00000            1  #  C_R X X X O_2 present=False
    2      16.66667      1.00000     -1.00000      0.00000            1  #  C_R X X X O_2 present=True

Atoms # a, b, c, alpha, beta, gamma: 30.5204926950, 30.9822872640, 29.9881225808, 82.9950652052, 92.8133743108, 89.6731445063 $$$atoms$$$

    1 1     6      0.00000     14.53101     14.71975      0.29241   #   Zn1   0.47383653   0.47394604   0.00983648
    2 1     7      0.00000      2.19761     14.73296      0.43608   #   Zn2   0.06996803   0.47380043   0.01466969
    3 1     2      0.00000      8.99621     16.39121     13.40496   #    H1   0.31375225   0.47570614   0.45093817
    4 1     2      0.00000      9.37926     14.83780      1.57252   #    H2   0.30712432   0.47266124   0.05289901
    5 1     2      0.00000      6.61341     16.44784     14.01927   #    H3   0.23668019   0.47508910   0.47160329
    6 1     2      0.00000      6.99646     14.89442      2.18683   #    H4   0.23005229   0.47204394   0.07356420
    7 1     2      0.00000      0.88424     10.60681      1.59527   #    H5   0.02961411   0.33600701   0.05366422
    8 1     2      0.00000     -0.33432     11.85695     13.49320   #    H6   0.00903134   0.32900271   0.45390656
    9 1     2      0.00000      1.76269      8.59649      1.90750   #    H7   0.05928602   0.26987706   0.06416771
   10 1     2      0.00000      1.78976      6.22794      2.45491   #    H8   0.06151633   0.19124873   0.08258228
   11 1     2      0.00000     14.14174      7.19816     13.68441   #    H9   0.48452288   0.17786968   0.46033884
   12 1     2      0.00000     14.11467      9.56671     13.13700   #   H10   0.48229263   0.25649801   0.44192428
   13 1     2      0.00000      0.97850      3.93770      2.09871   #   H11   0.03477773   0.11874400   0.07059997
   14 1     2      0.00000     -0.24006      5.18784     13.99665   #   H12   0.01419443   0.11173963   0.47084238
   15 1     2      0.00000     -0.03465     17.09578     14.76052   #   H13   0.01995604   0.49305231   0.49653869
   16 1     2      0.00000     14.47321      1.94600     14.34113   #   H14   0.49744585   0.00573176   0.48243056
   17 1     2      0.00000      1.50105     14.35268     11.41761   #   H15   0.06528530   0.41781851   0.38408434
   18 1     2      0.00000      1.63035     14.06218      8.99756   #   H16   0.06559426   0.41807418   0.30267465
   19 1     2      0.00000     14.18293      1.96025      8.45025   #   H17   0.47823920   0.02963788   0.28426342
   20 1     2      0.00000     14.07346      2.26709     10.86883   #   H18   0.47857455   0.02991579   0.36562361
   21 1     2      0.00000      0.48013      2.17488      6.61213   #   H19   0.02620449   0.04388174   0.22242963
   22 1     2      0.00000      0.58662      1.87798      4.19217   #   H20   0.02576722   0.04393022   0.14102325
   23 1     2      0.00000      0.38794     13.09001      4.70543   #   H21   0.01800615   0.40377844   0.15828913
   24 1     2      0.00000      0.25588     13.38964      7.12422   #   H22   0.01760325   0.40382269   0.23965634
   25 1     1      0.00000     10.67305     16.51849     14.78565   #    C1   0.37094140   0.47431906   0.49738405
   26 1     1      0.00000      9.27552     16.48728     14.44710   #    C2   0.32460038   0.47465922   0.48599529
   27 1     1      0.00000      9.08046     14.74202      0.53354   #    C3   0.29564245   0.47370502   0.01794811
   28 1     1      0.00000      7.64817     14.71079      0.19484   #    C4   0.24816206   0.47404526   0.00655423
   29 1     1      0.00000      6.71716     14.79835      1.14469   #    C5   0.21920416   0.47309096   0.03850701
   30 1     1      0.00000      5.31963     14.76714      0.80614   #    C6   0.17286311   0.47343105   0.02711829
   31 1     1      0.00000      0.74318     10.80245      0.54168   #    C7   0.02322248   0.34651497   0.01822193
   32 1     1      0.00000     -0.13309     11.62630     14.53324   #    C8   0.01737881   0.31741853   0.48889323
   33 1     1      0.00000      0.65097      8.36015      0.05166   #    C9   0.01985144   0.26963514   0.00173793
   34 1     1      0.00000      1.27445      7.90952      1.23075   #   C10   0.04230370   0.25039735   0.04140217
   35 1     1      0.00000      1.30279      6.54686      1.54107   #   C11   0.04399753   0.20517946   0.05184106
   36 1     1      0.00000      0.72916      5.60168      0.67684   #   C12   0.02395749   0.17811157   0.02276862
   37 1     1      0.00000     -0.63026      7.88513     14.36116   #   C13   0.00150527   0.19734935   0.48310439
   38 1     1      0.00000     14.60164      9.24779     14.05084   #   C14   0.49981137   0.24256725   0.47266549
   39 1     1      0.00000      0.77728      4.16835      1.05867   #   C15   0.02643015   0.13032817   0.03561333
   40 1     1      0.00000      0.63694      3.15938      0.18682   #   C16   0.02058626   0.10123170   0.00628465
   41 1     1      0.00000      0.19166     16.07922     11.33396   #   C17   0.02192287   0.47387882   0.38127061
   42 1     1      0.00000      0.95354     15.03598     10.78041   #   C18   0.04617017   0.44240935   0.36264934
   43 1     1      0.00000      1.02146     14.86460      9.39486   #   C19   0.04614755   0.44239243   0.31603993
   44 1     1      0.00000      0.33015     15.73304      8.53233   #   C20   0.02191539   0.47385607   0.28702448
   45 1     1      0.00000     14.74081      1.28550      9.08740   #   C21   0.49769278   0.00532317   0.30569705
   46 1     1      0.00000     14.67199      1.45622     10.47304   #   C22   0.49768570   0.00531844   0.35230948
   47 1     1      0.00000      0.40274     15.55136      7.05975   #   C23   0.02190498   0.47385298   0.23748742
   48 1     1      0.00000      0.42704      1.17220      6.20681   #   C24   0.02398552   0.01313112   0.20879506
   49 1     1      0.00000      0.49592      1.00133      4.82119   #   C25   0.02399419   0.01313108   0.16218327
   50 1     1      0.00000      0.54089     15.20632      4.25795   #   C26   0.02188589   0.47386784   0.14323598
   51 1     1      0.00000      0.42770     14.09394      5.10943   #   C27   0.01978619   0.43457435   0.17187959
   52 1     1      0.00000      0.35996     14.26475      6.49506   #   C28   0.01981451   0.43457257   0.21849165
   53 1     1      0.00000      0.61408     14.97164      2.78837   #   C29   0.02190978   0.47214215   0.09379983
   54 1     1      0.00000      0.11837     16.31391     12.80353   #   C30   0.02189582   0.47560487   0.43070642
   55 1     1      0.00000      0.64288      1.66946      0.20106   #   C31   0.02108257   0.05308490   0.00676350
   56 1     1      0.00000      0.73716     12.29236      0.52744   #   C32   0.02272300   0.39466160   0.01774279
   57 1     3      0.00000     12.53353     14.71073      0.19424   #    N1   0.40822952   0.47404574   0.00653433
   58 1     3      0.00000      4.19509     14.74207      0.53413   #    N2   0.13557499   0.47370427   0.01796801
   59 1     4      0.00000      1.20450     16.39762     13.35126   #    O1   0.05836817   0.47612699   0.44913179
   60 1     4      0.00000      1.74936     14.89794      2.34969   #    O2   0.05839902   0.47150918   0.07904264
   61 1     4      0.00000      1.75559      1.17446      0.26041   #    O3   0.05773054   0.03687147   0.00876014
   62 1     4      0.00000      1.84585     12.79739      0.57712   #    O4   0.05903661   0.41076470   0.01941425
   63 1     5      0.00000     14.79440      1.16443      0.15137   #    O5   0.48476791   0.03698177   0.00509192
   64 1     4      0.00000     14.78817     14.88792      2.24064   #    O6   0.48543638   0.47162000   0.07537436
   65 1     4      0.00000     14.24331     16.38761     13.24220   #    O7   0.48540553   0.47623779   0.44546299
   66 1     4      0.00000     14.88466     12.78737      0.46806   #    O8   0.48607397   0.41087550   0.01574548
   67 1     6      0.00000     13.79506     16.55258     15.15582   #   Zn1   0.47383653   0.47394604   0.50983648
   68 1     7      0.00000      1.46166     16.56578     15.29949   #   Zn2   0.06996803   0.47380043   0.51466969
   69 1     2      0.00000      8.26026     18.22403     28.26837   #    H1   0.31375225   0.47570614   0.95093817
   70 1     2      0.00000      8.64331     16.67062     16.43593   #    H2   0.30712432   0.47266124   0.55289901
   71 1     2      0.00000      5.87746     18.28067     28.88268   #    H3   0.23668019   0.47508910   0.97160329
   72 1     2      0.00000      6.26051     16.72725     17.05024   #    H4   0.23005229   0.47204394   0.57356420
   73 1     2      0.00000      0.14828     12.43964     16.45868   #    H5   0.02961411   0.33600701   0.55366422
   74 1     2      0.00000     -1.07027     13.68978     28.35661   #    H6   0.00903134   0.32900271   0.95390656
   75 1     2      0.00000      1.02674     10.42932     16.77091   #    H7   0.05928602   0.26987706   0.56416771
   76 1     2      0.00000      1.05381      8.06077     17.31832   #    H8   0.06151633   0.19124873   0.58258228
   77 1     2      0.00000     13.40579      9.03099     28.54782   #    H9   0.48452288   0.17786968   0.96033884
   78 1     2      0.00000     13.37872     11.39953     28.00042   #   H10   0.48229263   0.25649801   0.94192428
   79 1     2      0.00000      0.24255      5.77052     16.96212   #   H11   0.03477773   0.11874400   0.57059997
   80 1     2      0.00000     -0.97602      7.02066     28.86006   #   H12   0.01419443   0.11173963   0.97084238
   81 1     2      0.00000     -0.77060     18.92860     29.62393   #   H13   0.01995604   0.49305231   0.99653869
   82 1     2      0.00000     13.73726      3.77883     29.20454   #   H14   0.49744585   0.00573176   0.98243056
   83 1     2      0.00000      0.76510     16.18551     26.28102   #   H15   0.06528530   0.41781851   0.88408434
   84 1     2      0.00000      0.89440     15.89501     23.86097   #   H16   0.06559426   0.41807418   0.80267465
   85 1     2      0.00000     13.44697      3.79307     23.31366   #   H17   0.47823920   0.02963788   0.78426342
   86 1     2      0.00000     13.33750      4.09992     25.73224   #   H18   0.47857455   0.02991579   0.86562361
   87 1     2      0.00000     -0.25582      4.00771     21.47554   #   H19   0.02620449   0.04388174   0.72242963
   88 1     2      0.00000     -0.14933      3.71081     19.05558   #   H20   0.02576722   0.04393022   0.64102325
   89 1     2      0.00000     -0.34802     14.92284     19.56884   #   H21   0.01800615   0.40377844   0.65828913
   90 1     2      0.00000     -0.48007     15.22247     21.98763   #   H22   0.01760325   0.40382269   0.73965634
   91 1     1      0.00000      9.93709     18.35131     29.64906   #    C1   0.37094140   0.47431906   0.99738405
   92 1     1      0.00000      8.53957     18.32011     29.31051   #    C2   0.32460038   0.47465922   0.98599529
   93 1     1      0.00000      8.34451     16.57484     15.39695   #    C3   0.29564245   0.47370502   0.51794811
   94 1     1      0.00000      6.91221     16.54362     15.05825   #    C4   0.24816206   0.47404526   0.50655423
   95 1     1      0.00000      5.98120     16.63118     16.00810   #    C5   0.21920416   0.47309096   0.53850701
   96 1     1      0.00000      4.58368     16.59997     15.66955   #    C6   0.17286311   0.47343105   0.52711829
   97 1     1      0.00000      0.00723     12.63527     15.40509   #    C7   0.02322248   0.34651497   0.51822193
   98 1     1      0.00000     -0.86904     13.45913     29.39665   #    C8   0.01737881   0.31741853   0.98889323
   99 1     1      0.00000     -0.08498     10.19297     14.91507   #    C9   0.01985144   0.26963514   0.50173793
  100 1     1      0.00000      0.53849      9.74235     16.09417   #   C10   0.04230370   0.25039735   0.54140217
  101 1     1      0.00000      0.56683      8.37968     16.40448   #   C11   0.04399753   0.20517946   0.55184106
  102 1     1      0.00000     -0.00679      7.43450     15.54025   #   C12   0.02395749   0.17811157   0.52276862
  103 1     1      0.00000     -1.36621      9.71795     29.22457   #   C13   0.00150527   0.19734935   0.98310439
  104 1     1      0.00000     13.86569     11.08062     28.91425   #   C14   0.49981137   0.24256725   0.97266549
  105 1     1      0.00000      0.04132      6.00117     15.92208   #   C15   0.02643015   0.13032817   0.53561333
  106 1     1      0.00000     -0.09901      4.99220     15.05023   #   C16   0.02058626   0.10123170   0.50628465
  107 1     1      0.00000     -0.54429     17.91204     26.19738   #   C17   0.02192287   0.47387882   0.88127061
  108 1     1      0.00000      0.21759     16.86880     25.64382   #   C18   0.04617017   0.44240935   0.86264934
  109 1     1      0.00000      0.28550     16.69743     24.25827   #   C19   0.04614755   0.44239243   0.81603993
  110 1     1      0.00000     -0.40581     17.56586     23.39574   #   C20   0.02191539   0.47385607   0.78702448
  111 1     1      0.00000     14.00486      3.11833     23.95081   #   C21   0.49769278   0.00532317   0.80569705
  112 1     1      0.00000     13.93603      3.28905     25.33645   #   C22   0.49768570   0.00531844   0.85230948
  113 1     1      0.00000     -0.33321     17.38418     21.92316   #   C23   0.02190498   0.47385298   0.73748742
  114 1     1      0.00000     -0.30891      3.00502     21.07023   #   C24   0.02398552   0.01313112   0.70879506
  115 1     1      0.00000     -0.24004      2.83416     19.68460   #   C25   0.02399419   0.01313108   0.66218327
  116 1     1      0.00000     -0.19506     17.03915     19.12136   #   C26   0.02188589   0.47386784   0.64323598
  117 1     1      0.00000     -0.30825     15.92677     19.97285   #   C27   0.01978619   0.43457435   0.67187959
  118 1     1      0.00000     -0.37599     16.09757     21.35847   #   C28   0.01981451   0.43457257   0.71849165
  119 1     1      0.00000     -0.12187     16.80447     17.65178   #   C29   0.02190978   0.47214215   0.59379983
  120 1     1      0.00000     -0.61758     18.14673     27.66694   #   C30   0.02189582   0.47560487   0.93070642
  121 1     1      0.00000     -0.09307      3.50228     15.06447   #   C31   0.02108257   0.05308490   0.50676350
  122 1     1      0.00000      0.00120     14.12519     15.39085   #   C32   0.02272300   0.39466160   0.51774279
  123 1     3      0.00000     11.79758     16.54356     15.05766   #    N1   0.40822952   0.47404574   0.50653433
  124 1     3      0.00000      3.45914     16.57489     15.39754   #    N2   0.13557499   0.47370427   0.51796801
  125 1     4      0.00000      0.46855     18.23045     28.21467   #    O1   0.05836817   0.47612699   0.94913179
  126 1     4      0.00000      1.01341     16.73076     17.21310   #    O2   0.05839902   0.47150918   0.57904264
  127 1     4      0.00000      1.01964      3.00728     15.12382   #    O3   0.05773054   0.03687147   0.50876014
  128 1     4      0.00000      1.10990     14.63022     15.44054   #    O4   0.05903661   0.41076470   0.51941425
  129 1     5      0.00000     14.05844      2.99725     15.01478   #    O5   0.48476791   0.03698177   0.50509192
  130 1     4      0.00000     14.05222     16.72075     17.10405   #    O6   0.48543638   0.47162000   0.57537436
  131 1     4      0.00000     13.50736     18.22043     28.10561   #    O7   0.48540553   0.47623779   0.94546299
  132 1     4      0.00000     14.14871     14.62020     15.33147   #    O8   0.48607397   0.41087550   0.51574548
  133 1     6      0.00000     14.61938     30.21064      0.29241   #   Zn1   0.47383653   0.97394604   0.00983648
  134 1     7      0.00000      2.28598     30.22385      0.43608   #   Zn2   0.06996803   0.97380043   0.01466969
  135 1     2      0.00000      9.08459     31.88210     13.40496   #    H1   0.31375225   0.97570614   0.45093817
  136 1     2      0.00000      9.46764     30.32869      1.57252   #    H2   0.30712432   0.97266124   0.05289901
  137 1     2      0.00000      6.70178     31.93873     14.01927   #    H3   0.23668019   0.97508910   0.47160329
  138 1     2      0.00000      7.08483     30.38532      2.18683   #    H4   0.23005229   0.97204394   0.07356420
  139 1     2      0.00000      0.97261     26.09770      1.59527   #    H5   0.02961411   0.83600701   0.05366422
  140 1     2      0.00000     -0.24595     27.34785     13.49320   #    H6   0.00903134   0.82900271   0.45390656
  141 1     2      0.00000      1.85106     24.08738      1.90750   #    H7   0.05928602   0.76987706   0.06416771
  142 1     2      0.00000      1.87813     21.71884      2.45491   #    H8   0.06151633   0.69124873   0.08258228
  143 1     2      0.00000     14.23011     22.68905     13.68441   #    H9   0.48452288   0.67786968   0.46033884
  144 1     2      0.00000     14.20304     25.05760     13.13700   #   H10   0.48229263   0.75649801   0.44192428
  145 1     2      0.00000      1.06688     19.42859      2.09871   #   H11   0.03477773   0.61874400   0.07059997
  146 1     2      0.00000     -0.15169     20.67873     13.99665   #   H12   0.01419443   0.61173963   0.47084238
  147 1     2      0.00000      0.05373     32.58667     14.76052   #   H13   0.01995604   0.99305231   0.49653869
  148 1     2      0.00000     14.56159     17.43689     14.34113   #   H14   0.49744585   0.50573176   0.48243056
  149 1     2      0.00000      1.58942     29.84357     11.41761   #   H15   0.06528530   0.91781851   0.38408434
  150 1     2      0.00000      1.71873     29.55308      8.99756   #   H16   0.06559426   0.91807418   0.30267465
  151 1     2      0.00000     14.27130     17.45114      8.45025   #   H17   0.47823920   0.52963788   0.28426342
  152 1     2      0.00000     14.16183     17.75799     10.86883   #   H18   0.47857455   0.52991579   0.36562361
  153 1     2      0.00000      0.56851     17.66578      6.61213   #   H19   0.02620449   0.54388174   0.22242963
  154 1     2      0.00000      0.67499     17.36887      4.19217   #   H20   0.02576722   0.54393022   0.14102325
  155 1     2      0.00000      0.47631     28.58090      4.70543   #   H21   0.01800615   0.90377844   0.15828913
  156 1     2      0.00000      0.34425     28.88054      7.12422   #   H22   0.01760325   0.90382269   0.23965634
  157 1     1      0.00000     10.76142     32.00938     14.78565   #    C1   0.37094140   0.97431906   0.49738405
  158 1     1      0.00000      9.36389     31.97817     14.44710   #    C2   0.32460038   0.97465922   0.48599529
  159 1     1      0.00000      9.16883     30.23291      0.53354   #    C3   0.29564245   0.97370502   0.01794811
  160 1     1      0.00000      7.73654     30.20168      0.19484   #    C4   0.24816206   0.97404526   0.00655423
  161 1     1      0.00000      6.80553     30.28925      1.14469   #    C5   0.21920416   0.97309096   0.03850701
  162 1     1      0.00000      5.40800     30.25804      0.80614   #    C6   0.17286311   0.97343105   0.02711829
  163 1     1      0.00000      0.83156     26.29334      0.54168   #    C7   0.02322248   0.84651497   0.01822193
  164 1     1      0.00000     -0.04472     27.11720     14.53324   #    C8   0.01737881   0.81741853   0.48889323
  165 1     1      0.00000      0.73935     23.85104      0.05166   #    C9   0.01985144   0.76963514   0.00173793
  166 1     1      0.00000      1.36282     23.40041      1.23075   #   C10   0.04230370   0.75039735   0.04140217
  167 1     1      0.00000      1.39116     22.03775      1.54107   #   C11   0.04399753   0.70517946   0.05184106
  168 1     1      0.00000      0.81753     21.09257      0.67684   #   C12   0.02395749   0.67811157   0.02276862
  169 1     1      0.00000     -0.54189     23.37602     14.36116   #   C13   0.00150527   0.69734935   0.48310439
  170 1     1      0.00000     14.69001     24.73869     14.05084   #   C14   0.49981137   0.74256725   0.47266549
  171 1     1      0.00000      0.86565     19.65924      1.05867   #   C15   0.02643015   0.63032817   0.03561333
  172 1     1      0.00000      0.72532     18.65027      0.18682   #   C16   0.02058626   0.60123170   0.00628465
  173 1     1      0.00000      0.28003     31.57011     11.33396   #   C17   0.02192287   0.97387882   0.38127061
  174 1     1      0.00000      1.04192     30.52687     10.78041   #   C18   0.04617017   0.94240935   0.36264934
  175 1     1      0.00000      1.10983     30.35549      9.39486   #   C19   0.04614755   0.94239243   0.31603993
  176 1     1      0.00000      0.41852     31.22393      8.53233   #   C20   0.02191539   0.97385607   0.28702448
  177 1     1      0.00000     14.82918     16.77639      9.08740   #   C21   0.49769278   0.50532317   0.30569705
  178 1     1      0.00000     14.76036     16.94711     10.47304   #   C22   0.49768570   0.50531844   0.35230948
  179 1     1      0.00000      0.49111     31.04225      7.05975   #   C23   0.02190498   0.97385298   0.23748742
  180 1     1      0.00000      0.51542     16.66309      6.20681   #   C24   0.02398552   0.51313112   0.20879506
  181 1     1      0.00000      0.58429     16.49222      4.82119   #   C25   0.02399419   0.51313108   0.16218327
  182 1     1      0.00000      0.62926     30.69722      4.25795   #   C26   0.02188589   0.97386784   0.14323598
  183 1     1      0.00000      0.51607     29.58483      5.10943   #   C27   0.01978619   0.93457435   0.17187959
  184 1     1      0.00000      0.44833     29.75564      6.49506   #   C28   0.01981451   0.93457257   0.21849165
  185 1     1      0.00000      0.70245     30.46253      2.78837   #   C29   0.02190978   0.97214215   0.09379983
  186 1     1      0.00000      0.20674     31.80480     12.80353   #   C30   0.02189582   0.97560487   0.43070642
  187 1     1      0.00000      0.73125     17.16035      0.20106   #   C31   0.02108257   0.55308490   0.00676350
  188 1     1      0.00000      0.82553     27.78325      0.52744   #   C32   0.02272300   0.89466160   0.01774279
  189 1     3      0.00000     12.62190     30.20163      0.19424   #    N1   0.40822952   0.97404574   0.00653433
  190 1     3      0.00000      4.28346     30.23296      0.53413   #    N2   0.13557499   0.97370427   0.01796801
  191 1     4      0.00000      1.29287     31.88852     13.35126   #    O1   0.05836817   0.97612699   0.44913179
  192 1     4      0.00000      1.83773     30.38883      2.34969   #    O2   0.05839902   0.97150918   0.07904264
  193 1     4      0.00000      1.84396     16.66535      0.26041   #    O3   0.05773054   0.53687147   0.00876014
  194 1     4      0.00000      1.93422     28.28828      0.57712   #    O4   0.05903661   0.91076470   0.01941425
  195 1     5      0.00000     14.88277     16.65532      0.15137   #    O5   0.48476791   0.53698177   0.00509192
  196 1     4      0.00000     14.87654     30.37882      2.24064   #    O6   0.48543638   0.97162000   0.07537436
  197 1     4      0.00000     14.33168     31.87850     13.24220   #    O7   0.48540553   0.97623779   0.44546299
  198 1     4      0.00000     14.97303     28.27826      0.46806   #    O8   0.48607397   0.91087550   0.01574548
  199 1     6      0.00000     13.88343     32.04347     15.15582   #   Zn1   0.47383653   0.97394604   0.50983648
  200 1     7      0.00000      1.55003     32.05667     15.29949   #   Zn2   0.06996803   0.97380043   0.51466969
  201 1     2      0.00000      8.34863     33.71493     28.26837   #    H1   0.31375225   0.97570614   0.95093817
  202 1     2      0.00000      8.73168     32.16152     16.43593   #    H2   0.30712432   0.97266124   0.55289901
  203 1     2      0.00000      5.96583     33.77156     28.88268   #    H3   0.23668019   0.97508910   0.97160329
  204 1     2      0.00000      6.34888     32.21814     17.05024   #    H4   0.23005229   0.97204394   0.57356420
  205 1     2      0.00000      0.23666     27.93053     16.45868   #    H5   0.02961411   0.83600701   0.55366422
  206 1     2      0.00000     -0.98190     29.18067     28.35661   #    H6   0.00903134   0.82900271   0.95390656
  207 1     2      0.00000      1.11511     25.92021     16.77091   #    H7   0.05928602   0.76987706   0.56416771
  208 1     2      0.00000      1.14218     23.55166     17.31832   #    H8   0.06151633   0.69124873   0.58258228
  209 1     2      0.00000     13.49416     24.52188     28.54782   #    H9   0.48452288   0.67786968   0.96033884
  210 1     2      0.00000     13.46709     26.89042     28.00042   #   H10   0.48229263   0.75649801   0.94192428