Created by Ryther's code on 2025-08-05 18:37:07.421731, modified by xyan11@uic.edu. 

    592 atoms
    680 bonds
    1192 angles
    1456 dihedrals
    264 impropers

    10 atom types
    19 bond types
    38 angle types
    11 dihedral types
    3 improper types

0.00000000 32.64549535 xlo xhi
0.00000000 20.5997668 ylo yhi
0.00000000 20.53531421 zlo zhi
0.17818326 0.18338266 1.59889762 xy xz yz 

Masses 

    1    12.0107  #   C
    2    12.0107  #   C
    3    12.0107  #   C
    4    1.00794  #   H
    5    14.0067  #   N
    6    14.0067  #   N
    7    15.9994  #   O
    8    15.9994  #   O
    9    15.9994  #   O
   10      65.38  #  Zn

Pair Coeffs

    1       0.10500      3.43085  #  C_2 C_2
    2       0.10500      3.43085  #  C_3 C_3
    3       0.10500      3.43085  #  C_R C_R
    4       0.04400      2.57113  #  H_ H_
    5       0.06900      3.26069  #  N_2 N_2
    6       0.06900      3.26069  #  N_3 N_3
    7       0.06000      3.11815  #  O_1 O_1
    8       0.06000      3.11815  #  O_2_M O_2_M
    9       0.06000      3.11815  #  O_3_M O_3_M
    10      0.06000      2.58361  #  Zn6f3 Zn6f3

Bond Coeffs

    1      54.94924      2.40433  #  O_2_M Zn6f3 bond order=0.5
    2      55.07699      2.48452  #  N_2 Zn6f3 bond order=0.5
    3      53.24274      2.42975  #  O_3_M Zn6f3 bond order=0.5
    4     357.44038      1.08142  #  C_R H_ bond order=1.0
    5     331.06939      1.10940  #  C_3 H_ bond order=1.0
    6     527.90376      1.04442  #  H_ N_3 bond order=1.0
    7     559.99521      0.99025  #  H_ O_3_M bond order=1.0
    8     931.53598      1.20133  #  C_R N_2 bond order=3.0
    9     462.65505      1.37926  #  C_R C_R bond order=1.5
    10    523.75938      1.32339  #  C_R C_R bond order=2.0
    11    369.94394      1.48600  #  C_3 C_R bond order=1.0
    12    520.53955      1.32611  #  C_2 C_R bond order=2.0
    13    367.71238      1.48900  #  C_2 C_3 bond order=1.0
    14    389.26171      1.46100  #  C_2 C_R bond order=1.0
    15    391.66951      1.45800  #  C_R C_R bond order=1.0
    16    560.26893      1.42319  #  C_R N_3 bond order=1.0
    17    706.67500      1.27367  #  C_R O_1 bond order=1.5
    18    714.55744      1.26901  #  C_R O_2_M bond order=1.5
    19    678.02790      1.29140  #  C_R O_3_M bond order=1.5

Angle Coeffs

    1  cosine/periodic         67.02484            1            4  #  O_2_M Zn6f3 O_2_M
    2  cosine/periodic         70.47472            1            4  #  N_2 Zn6f3 O_2_M
    3  cosine/periodic         65.96675            1            4  #  O_2_M Zn6f3 O_3_M
    4  cosine/periodic         69.42201            1            4  #  N_2 Zn6f3 O_3_M
    5  cosine/periodic        164.23630            1            1  #  C_R H_ O_3_M
    6  cosine/periodic        179.74893           -1            3  #  C_R C_R N_2
    7  cosine/periodic        118.27773           -1            3  #  C_R C_R C_R
    8  cosine/periodic         99.13715           -1            3  #  C_3 C_R C_R
    9  cosine/periodic        104.90215           -1            3  #  C_3 C_R C_R
    10 cosine/periodic         61.73740           -1            3  #  C_R C_R H_
    11 cosine/periodic         57.28902           -1            3  #  C_R C_R H_
    12 cosine/periodic         61.51171           -1            3  #  C_2 C_R H_
    13 cosine/periodic        117.92729           -1            3  #  C_2 C_R C_R
    14 cosine/periodic        104.26396           -1            3  #  C_3 C_2 C_R
    15 cosine/periodic        107.57857           -1            3  #  C_R C_2 C_R
    16 cosine/periodic         90.98998           -1            3  #  C_3 C_2 C_R
    17 cosine/periodic        101.85214           -1            3  #  C_2 C_R C_R
    18 cosine/periodic        111.29751           -1            3  #  C_R C_R C_R
    19 fourier                 75.49653      0.34375      0.37500      0.28125  #  H_ C_3 H_
    20 fourier                121.77380      0.34375      0.37500      0.28125  #  C_R C_3 H_
    21 fourier                121.28729      0.34375      0.37500      0.28125  #  C_2 C_3 H_
    22 fourier                225.85850      0.34375      0.37500      0.28125  #  C_2 C_3 C_R
    23 cosine/periodic        102.18328           -1            3  #  C_R C_R C_R
    24 cosine/periodic        141.17366           -1            3  #  C_R C_R N_3
    25 cosine/periodic        132.67762           -1            3  #  C_3 C_R O_1
    26 cosine/periodic        189.84281           -1            3  #  N_3 C_R O_1
    27 cosine/periodic        126.16097           -1            3  #  C_3 C_R N_3
    28 cosine/periodic        137.71425           -1            3  #  C_R C_R O_2_M
    29 cosine/periodic        206.77843           -1            3  #  O_2_M C_R O_2_M
    30 cosine/periodic        134.57449           -1            3  #  C_R C_R O_3_M
    31 cosine/periodic        201.38050           -1            3  #  O_2_M C_R O_3_M
    32 fourier                 48.02888      0.36401      0.41847      0.28800  #  C_R N_2 Zn6f3
    33 fourier                150.57460      0.31751      0.31322      0.27250  #  C_R N_3 H_
    34 fourier                276.50199      0.31751      0.31322      0.27250  #  C_R N_3 C_R
    35 fourier                 22.33312      0.30023      0.26733      0.26675  #  H_ O_3_M Zn6f3
    36 fourier                 55.81766      0.30023      0.26733      0.26675  #  C_R O_3_M Zn6f3
    37 fourier                203.65891      0.30023      0.26733      0.26675  #  C_R O_3_M H_
    38 cosine/periodic         21.77718           -1            3  #  C_R O_2_M Zn6f3

Dihedral Coeffs

    1      27.96100           -1            2  #  X C_R N_2 X bond order=3.0
    2       6.73711           -1            2  #  X C_R C_R X bond order=1.5
    3       4.87169           -1            2  #  X C_R C_R X bond order=2.0
    4       0.16667           -1            6  #  X C_3 C_R X bond order=1.0
    5       4.87169           -1            2  #  X C_2 C_R X bond order=2.0
    6       0.16667           -1            6  #  X C_2 C_3 X bond order=1.0
    7       1.25000           -1            2  #  X C_2 C_R X bond order=1.0
    8       1.25000           -1            2  #  X C_R C_R X bond order=1.0
    9       0.25000           -1            6  #  X C_R N_3 X bond order=1.0
    10      6.73711           -1            2  #  X C_R O_2_M X bond order=1.5
    11      0.31957           -1            2  #  X C_R O_3_M X bond order=1.5

Improper Coeffs

    1       2.00000      1.00000     -1.00000      0.00000            1  #  C_R X X X O_2 present=False
    2       2.00000      1.00000     -1.00000      0.00000            1  #  C_2 X X X O_2 present=False
    3      16.66667      1.00000     -1.00000      0.00000            1  #  C_R X X X O_2 present=True

Atoms # a, b, c, alpha, beta, gamma: 32.6454953538, 20.6005374064, 20.5982822739, 85.5438007347, 89.4898996244, 89.5044169989 $$$atoms$$$

    1 1     10     0.00000     14.66945      4.67561      5.69959   #   Zn1   0.44667557   0.20543141   0.27755089
    2 1     10     0.00000      1.27688      4.65133      5.67414   #   Zn2   0.03644612   0.20434863   0.27631133
    3 1     4      0.00000     11.86176      2.24492      3.15149   #    H1   0.36195871   0.09706636   0.15346697
    4 1     4      0.00000      9.45518      1.41689      2.28354   #    H2   0.28867906   0.06015069   0.11120076
    5 1     4      0.00000      6.65974      4.08409      5.07944   #    H3   0.20163501   0.17906033   0.24735161
    6 1     4      0.00000      3.32440      2.21730      3.12270   #    H4   0.10045612   0.09583405   0.15206506
    7 1     4      0.00000      4.87124      0.89072      1.73218   #    H5   0.14854207   0.03669213   0.08435114
    8 1     4      0.00000      7.28843      1.12722      1.98006   #    H6   0.22246050   0.04723615   0.09642225
    9 1     4      0.00000      9.01761      3.46454      5.76263   #    H7   0.27385281   0.14640225   0.28062059
   10 1     4      0.00000      9.01758      4.79565      4.49280   #    H8   0.27382046   0.21581985   0.21878386
   11 1     4      0.00000     16.36530      1.65744      3.75584   #    H9   0.49991440   0.06626333   0.18289669
   12 1     4      0.00000      0.12793      7.66824      3.75252   #   H10   0.00093798   0.35806555   0.18273494
   13 1     4      0.00000     15.91449      9.81578      7.44488   #   H11   0.48301049   0.44835999   0.36254029
   14 1     4      0.00000     16.33717      8.96349      1.64495   #   H12   0.49765079   0.42890831   0.08010348
   15 1     4      0.00000      0.14336      1.03708      9.85886   #   H13   0.00162313   0.01308094   0.48009293
   16 1     4      0.00000      1.50846      2.21668      9.83634   #   H14   0.04313209   0.07042878   0.47899624
   17 1     4      0.00000      1.94106     10.73974      9.85498   #   H15   0.05412059   0.48410343   0.47990413
   18 1     4      0.00000      1.72280      4.59703      2.66724   #   H16   0.05088029   0.21307775   0.12988563
   19 1     4      0.00000      1.77937      5.09552      8.64870   #   H17   0.05096817   0.21466886   0.42116245
   20 1     4      0.00000     14.31987      4.09698      0.57929   #   H18   0.43741547   0.19669522   0.02820944
   21 1     4      0.00000      3.76231      3.85513      9.27861   #   H20   0.11187924   0.15207411   0.45183674
   22 1     4      0.00000      6.21113      4.10603      9.24401   #   H21   0.18683394   0.16438465   0.45015177
   23 1     4      0.00000      7.22839      4.96752      0.44295   #   H22   0.21999251   0.23947047   0.02156995
   24 1     4      0.00000      5.87179      6.39593      1.94584   #   H23   0.17767839   0.30313083   0.09475572
   25 1     4      0.00000      3.41929      6.18457      1.98341   #   H24   0.10259972   0.29272850   0.09658512
   26 1     3      0.00000     11.80631      4.16035      5.15937   #    C1   0.35924487   0.18245998   0.25124356
   27 1     3      0.00000     10.73315      3.49979      4.46695   #    C2   0.32672168   0.15301088   0.21752547
   28 1     3      0.00000     10.90624      2.59626      3.51981   #    C3   0.33250301   0.11272978   0.17140296
   29 1     3      0.00000      9.60323      2.15534      3.05764   #    C4   0.29282262   0.09307238   0.14889672
   30 1     1      0.00000      8.65233      2.80063      3.73410   #    C5   0.26335257   0.12184053   0.18183784
   31 1     3      0.00000      7.18138      2.63009      3.55535   #    C6   0.21838477   0.11423736   0.17313356
   32 1     3      0.00000      6.28679      3.38220      4.34373   #    C7   0.19058268   0.14776849   0.21152487
   33 1     3      0.00000      4.90161      3.23645      4.19096   #    C8   0.14822923   0.14127047   0.20408564
   34 1     3      0.00000      4.00069      4.01169      5.00357   #    C9   0.12022105   0.17583240   0.24365679
   35 1     3      0.00000      4.39383      2.33737      3.24855   #   C10   0.13315134   0.10118708   0.15819333
   36 1     3      0.00000      5.26687      1.58624      2.46122   #   C11   0.16029245   0.06770037   0.11985304
   37 1     3      0.00000      6.64938      1.72807      2.60987   #   C12   0.20256654   0.07402337   0.12709181
   38 1     2      0.00000      9.28469      3.74152      4.72038   #   C13   0.28222443   0.16378765   0.22986665
   39 1     3      0.00000     16.10199      0.73568      5.68688   #   C14   0.49160442   0.01421833   0.27693169
   40 1     3      0.00000     16.31534      0.72297      4.29874   #   C15   0.49849418   0.01884810   0.20933390
   41 1     3      0.00000      0.19700      9.80834      3.60194   #   C16   0.00252478   0.46252409   0.17540234
   42 1     3      0.00000     16.38046      8.60079      4.29910   #   C17   0.49840151   0.40126945   0.20935138
   43 1     3      0.00000     16.16722      8.59127      5.68686   #   C18   0.49152118   0.39556199   0.27693077
   44 1     3      0.00000     16.07875      9.81431      6.37419   #   C19   0.48831319   0.45233559   0.31040147
   45 1     3      0.00000      1.09249      0.43770      1.45422   #   C20   0.03298143   0.01575130   0.07081551
   46 1     2      0.00000      1.17179      1.23340     10.22805   #   C21   0.03298060   0.02121552   0.49807128
   47 1     3      0.00000     16.09812      4.35972      1.77087   #   C22   0.49151623   0.20494613   0.08623537
   48 1     3      0.00000      1.17309      4.49077      1.74012   #   C23   0.03430430   0.21142379   0.08473793
   49 1     3      0.00000      1.87261      4.46238      0.52183   #   C24   0.05604751   0.21465072   0.02541114
   50 1     3      0.00000      1.24711      5.09984      9.59212   #   C25   0.03442429   0.21131255   0.46710342
   51 1     3      0.00000     16.17108      4.96722      9.60287   #   C26   0.49160939   0.20483417   0.46762710
   52 1     3      0.00000     15.39803      4.19859      0.56292   #   C27   0.47041900   0.20168978   0.02741238
   53 1     3      0.00000      3.35135      4.60187      0.50002   #   C28   0.10131298   0.22150425   0.02434938
   54 1     3      0.00000      4.22520      4.59758      9.91654   #   C29   0.12570046   0.18570458   0.48290173
   55 1     3      0.00000      5.61699      4.73073      9.89846   #   C30   0.16830334   0.19223628   0.48202135
   56 1     3      0.00000      6.15094      4.86591      0.45881   #   C31   0.18701091   0.23447763   0.02234231
   57 1     3      0.00000      5.38606      5.66939      1.30728   #   C32   0.16315344   0.27027524   0.06366032
   58 1     3      0.00000      3.99398      5.53998      1.33019   #   C33   0.12053979   0.26390645   0.06477575
   59 1     3      0.00000     16.15682      4.79911      8.12245   #   C34   0.49159142   0.20226865   0.39553591
   60 1     3      0.00000     16.11229      4.52785      3.25128   #   C35   0.49153125   0.20751220   0.15832636
   61 1     3      0.00000     16.15433      7.10227      5.63372   #   C36   0.49153418   0.32348069   0.27434323
   62 1     3      0.00000     16.11478      2.22467      5.74001   #   C37   0.49158846   0.08629937   0.27951907
   63 1     5      0.00000     12.66968      4.69219      5.71686   #    N1   0.38540973   0.20617086   0.27839161
   64 1     5      0.00000      3.27665      4.63485      5.65677   #    N2   0.09771196   0.20361451   0.27546528
   65 1     6      0.00000      0.39444      9.77886      2.17756   #    N3   0.00894081   0.46647676   0.10603972
   66 1     7      0.00000      1.85974      1.23106      2.06346   #    O1   0.05611966   0.05196165   0.10048351
   67 1     9      0.00000      0.90629      4.57500      3.73846   #    O2   0.02560374   0.20795966   0.18205035
   68 1     8      0.00000      0.94127      4.73352      7.61595   #    O3   0.02565270   0.20099890   0.37087093
   69 1     8      0.00000      0.93924      6.59335      5.60628   #    O4   0.02560602   0.29887917   0.27300700
   70 1     8      0.00000      0.90832      2.71516      5.74813   #    O5   0.02565040   0.11007939   0.27991423
   71 1     8      0.00000     15.03802      6.61178      5.62561   #    O6   0.45747127   0.29970064   0.27394798
   72 1     8      0.00000     15.04005      4.75196      7.63527   #    O7   0.45751795   0.20182116   0.37181188
   73 1     8      0.00000     15.00506      4.59344      3.75777   #    O8   0.45746899   0.20878189   0.18299051
   74 1     8      0.00000     15.00709      2.73361      5.76743   #    O9   0.45751564   0.11090163   0.28085445
   75 1     10     0.00000     14.76114      5.47506     15.96725   #   Zn1   0.44667557   0.20543141   0.77755089
   76 1     10     0.00000      1.36858      5.45078     15.94180   #   Zn2   0.03644612   0.20434863   0.77631133
   77 1     4      0.00000     11.95345      3.04437     13.41915   #    H1   0.36195871   0.09706636   0.65346697
   78 1     4      0.00000      9.54687      2.21634     12.55120   #    H2   0.28867906   0.06015069   0.61120076
   79 1     4      0.00000      6.75143      4.88354     15.34710   #    H3   0.20163501   0.17906033   0.74735161
   80 1     4      0.00000      3.41609      3.01674     13.39036   #    H4   0.10045612   0.09583405   0.65206506
   81 1     4      0.00000      4.96293      1.69017     11.99983   #    H5   0.14854207   0.03669213   0.58435114
   82 1     4      0.00000      7.38012      1.92667     12.24772   #    H6   0.22246050   0.04723615   0.59642225
   83 1     4      0.00000      9.10930      4.26398     16.03029   #    H7   0.27385281   0.14640225   0.78062059
   84 1     4      0.00000      9.10927      5.59510     14.76045   #    H8   0.27382046   0.21581985   0.71878386
   85 1     4      0.00000     16.45699      2.45689     14.02350   #    H9   0.49991440   0.06626333   0.68289669
   86 1     4      0.00000      0.21962      8.46769     14.02018   #   H10   0.00093798   0.35806555   0.68273494
   87 1     4      0.00000     16.00618     10.61522     17.71254   #   H11   0.48301049   0.44835999   0.86254029
   88 1     4      0.00000     16.42886      9.76294     11.91261   #   H12   0.49765079   0.42890831   0.58010348
   89 1     4      0.00000      0.23505      1.83653     20.12652   #   H13   0.00162313   0.01308094   0.98009293
   90 1     4      0.00000      1.60015      3.01613     20.10400   #   H14   0.04313209   0.07042878   0.97899624
   91 1     4      0.00000      2.03275     11.53918     20.12264   #   H15   0.05412059   0.48410343   0.97990413
   92 1     4      0.00000      1.81449      5.39647     12.93490   #   H16   0.05088029   0.21307775   0.62988563
   93 1     4      0.00000      1.87106      5.89497     18.91636   #   H17   0.05096817   0.21466886   0.92116245
   94 1     4      0.00000     14.41156      4.89643     10.84695   #   H18   0.43741547   0.19669522   0.52820944
   95 1     4      0.00000      3.85400      4.65458     19.54627   #   H20   0.11187924   0.15207411   0.95183674
   96 1     4      0.00000      6.30282      4.90548     19.51167   #   H21   0.18683394   0.16438465   0.95015177
   97 1     4      0.00000      7.32008      5.76697     10.71060   #   H22   0.21999251   0.23947047   0.52156995
   98 1     4      0.00000      5.96348      7.19538     12.21350   #   H23   0.17767839   0.30313083   0.59475572
   99 1     4      0.00000      3.51098      6.98402     12.25106   #   H24   0.10259972   0.29272850   0.59658512
  100 1     3      0.00000     11.89800      4.95979     15.42702   #    C1   0.35924487   0.18245998   0.75124356
  101 1     3      0.00000     10.82484      4.29924     14.73461   #    C2   0.32672168   0.15301088   0.71752547
  102 1     3      0.00000     10.99794      3.39571     13.78747   #    C3   0.33250301   0.11272978   0.67140296
  103 1     3      0.00000      9.69492      2.95479     13.32530   #    C4   0.29282262   0.09307238   0.64889672
  104 1     1      0.00000      8.74402      3.60008     14.00175   #    C5   0.26335257   0.12184053   0.68183784
  105 1     3      0.00000      7.27308      3.42953     13.82301   #    C6   0.21838477   0.11423736   0.67313356
  106 1     3      0.00000      6.37848      4.18165     14.61139   #    C7   0.19058268   0.14776849   0.71152487
  107 1     3      0.00000      4.99331      4.03590     14.45862   #    C8   0.14822923   0.14127047   0.70408564
  108 1     3      0.00000      4.09238      4.81114     15.27123   #    C9   0.12022105   0.17583240   0.74365679
  109 1     3      0.00000      4.48552      3.13681     13.51621   #   C10   0.13315134   0.10118708   0.65819333
  110 1     3      0.00000      5.35856      2.38569     12.72888   #   C11   0.16029245   0.06770037   0.61985304
  111 1     3      0.00000      6.74107      2.52752     12.87753   #   C12   0.20256654   0.07402337   0.62709181
  112 1     2      0.00000      9.37639      4.54097     14.98804   #   C13   0.28222443   0.16378765   0.72986665
  113 1     3      0.00000     16.19368      1.53513     15.95454   #   C14   0.49160442   0.01421833   0.77693169
  114 1     3      0.00000     16.40703      1.52242     14.56639   #   C15   0.49849418   0.01884810   0.70933390
  115 1     3      0.00000      0.28869     10.60779     13.86960   #   C16   0.00252478   0.46252409   0.67540234
  116 1     3      0.00000     16.47215      9.40024     14.56675   #   C17   0.49840151   0.40126945   0.70935138
  117 1     3      0.00000     16.25891      9.39072     15.95452   #   C18   0.49152118   0.39556199   0.77693077
  118 1     3      0.00000     16.17044     10.61376     16.64185   #   C19   0.48831319   0.45233559   0.81040147
  119 1     3      0.00000      1.18418      1.23715     11.72188   #   C20   0.03298143   0.01575130   0.57081551
  120 1     2      0.00000      1.26348      2.03285     20.49571   #   C21   0.03298060   0.02121552   0.99807128
  121 1     3      0.00000     16.18981      5.15917     12.03853   #   C22   0.49151623   0.20494613   0.58623537
  122 1     3      0.00000      1.26478      5.29022     12.00778   #   C23   0.03430430   0.21142379   0.58473793
  123 1     3      0.00000      1.96430      5.26183     10.78948   #   C24   0.05604751   0.21465072   0.52541114
  124 1     3      0.00000      1.33880      5.89929     19.85977   #   C25   0.03442429   0.21131255   0.96710342
  125 1     3      0.00000     16.26278      5.76667     19.87053   #   C26   0.49160939   0.20483417   0.96762710
  126 1     3      0.00000     15.48972      4.99804     10.83058   #   C27   0.47041900   0.20168978   0.52741238
  127 1     3      0.00000      3.44304      5.40132     10.76768   #   C28   0.10131298   0.22150425   0.52434938
  128 1     3      0.00000      4.31689      5.39703     20.18420   #   C29   0.12570046   0.18570458   0.98290173
  129 1     3      0.00000      5.70868      5.53017     20.16612   #   C30   0.16830334   0.19223628   0.98202135
  130 1     3      0.00000      6.24263      5.66536     10.72646   #   C31   0.18701091   0.23447763   0.52234231
  131 1     3      0.00000      5.47775      6.46884     11.57494   #   C32   0.16315344   0.27027524   0.56366032
  132 1     3      0.00000      4.08567      6.33943     11.59785   #   C33   0.12053979   0.26390645   0.56477575
  133 1     3      0.00000     16.24851      5.59856     18.39011   #   C34   0.49159142   0.20226865   0.89553591
  134 1     3      0.00000     16.20398      5.32730     13.51894   #   C35   0.49153125   0.20751220   0.65832636
  135 1     3      0.00000     16.24602      7.90172     15.90138   #   C36   0.49153418   0.32348069   0.77434323
  136 1     3      0.00000     16.20648      3.02412     16.00767   #   C37   0.49158846   0.08629937   0.77951907
  137 1     5      0.00000     12.76137      5.49164     15.98452   #    N1   0.38540973   0.20617086   0.77839161
  138 1     5      0.00000      3.36834      5.43430     15.92442   #    N2   0.09771196   0.20361451   0.77546528
  139 1     6      0.00000      0.48613     10.57831     12.44522   #    N3   0.00894081   0.46647676   0.60603972
  140 1     7      0.00000      1.95143      2.03051     12.33112   #    O1   0.05611966   0.05196165   0.60048351
  141 1     9      0.00000      0.99798      5.37445     14.00612   #    O2   0.02560374   0.20795966   0.68205035
  142 1     8      0.00000      1.03296      5.53296     17.88361   #    O3   0.02565270   0.20099890   0.87087093
  143 1     8      0.00000      1.03093      7.39280     15.87394   #    O4   0.02560602   0.29887917   0.77300700
  144 1     8      0.00000      1.00001      3.51461     16.01578   #    O5   0.02565040   0.11007939   0.77991423
  145 1     8      0.00000     15.12971      7.41123     15.89327   #    O6   0.45747127   0.29970064   0.77394798
  146 1     8      0.00000     15.13174      5.55141     17.90293   #    O7   0.45751795   0.20182116   0.87181188
  147 1     8      0.00000     15.09675      5.39289     14.02542   #    O8   0.45746899   0.20878189   0.68299051
  148 1     8      0.00000     15.09878      3.53305     16.03509   #    O9   0.45751564   0.11090163   0.78085445
  149 1     10     0.00000     14.75854     14.97550      5.69959   #   Zn1   0.44667557   0.70543141   0.27755089
  150 1     10     0.00000      1.36598     14.95121      5.67414   #   Zn2   0.03644612   0.70434863   0.27631133
  151 1     4      0.00000     11.95085     12.54481      3.15149   #    H1   0.36195871   0.59706636   0.15346697
  152 1     4      0.00000      9.54427     11.71677      2.28354   #    H2   0.28867906   0.56015069   0.11120076
  153 1     4      0.00000      6.74883     14.38397      5.07944   #    H3   0.20163501   0.67906033   0.24735161
  154 1     4      0.00000      3.41349     12.51718      3.12270   #    H4   0.10045612   0.59583405   0.15206506
  155 1     4      0.00000      4.96033     11.19060      1.73218   #    H5   0.14854207   0.53669213   0.08435114
  156 1     4      0.00000      7.37752     11.42711      1.98006   #    H6   0.22246050   0.54723615   0.09642225
  157 1     4      0.00000      9.10670     13.76442      5.76263   #    H7   0.27385281   0.64640225   0.28062059
  158 1     4      0.00000      9.10667     15.09553      4.49280   #    H8   0.27382046   0.71581985   0.21878386
  159 1     4      0.00000     16.45439     11.95733      3.75584   #    H9   0.49991440   0.56626333   0.18289669
  160 1     4      0.00000      0.21702     17.96812      3.75252   #   H10   0.00093798   0.85806555   0.18273494
  161 1     4      0.00000     16.00358     20.11566      7.44488   #   H11   0.48301049   0.94835999   0.36254029
  162 1     4      0.00000     16.42626     19.26337      1.64495   #   H12   0.49765079   0.92890831   0.08010348
  163 1     4      0.00000      0.23245     11.33697      9.85886   #   H13   0.00162313   0.51308094   0.48009293
  164 1     4      0.00000      1.59755     12.51657      9.83634   #   H14   0.04313209   0.57042878   0.47899624
  165 1     4      0.00000      2.03015     21.03962      9.85498   #   H15   0.05412059   0.98410343   0.47990413
  166 1     4      0.00000      1.81189     14.89691      2.66724   #   H16   0.05088029   0.71307775   0.12988563
  167 1     4      0.00000      1.86846     15.39541      8.64870   #   H17   0.05096817   0.71466886   0.42116245
  168 1     4      0.00000     14.40896     14.39686      0.57929   #   H18   0.43741547   0.69669522   0.02820944
  169 1     4      0.00000      3.85140     14.15502      9.27861   #   H20   0.11187924   0.65207411   0.45183674
  170 1     4      0.00000      6.30022     14.40592      9.24401   #   H21   0.18683394   0.66438465   0.45015177
  171 1     4      0.00000      7.31748     15.26741      0.44295   #   H22   0.21999251   0.73947047   0.02156995
  172 1     4      0.00000      5.96088     16.69581      1.94584   #   H23   0.17767839   0.80313083   0.09475572
  173 1     4      0.00000      3.50838     16.48445      1.98341   #   H24   0.10259972   0.79272850   0.09658512
  174 1     3      0.00000     11.89540     14.46023      5.15937   #    C1   0.35924487   0.68245998   0.25124356
  175 1     3      0.00000     10.82224     13.79967      4.46695   #    C2   0.32672168   0.65301088   0.21752547
  176 1     3      0.00000     10.99534     12.89615      3.51981   #    C3   0.33250301   0.61272978   0.17140296
  177 1     3      0.00000      9.69232     12.45522      3.05764   #    C4   0.29282262   0.59307238   0.14889672
  178 1     1      0.00000      8.74142     13.10051      3.73410   #    C5   0.26335257   0.62184053   0.18183784
  179 1     3      0.00000      7.27048     12.92997      3.55535   #    C6   0.21838477   0.61423736   0.17313356
  180 1     3      0.00000      6.37588     13.68209      4.34373   #    C7   0.19058268   0.64776849   0.21152487
  181 1     3      0.00000      4.99071     13.53633      4.19096   #    C8   0.14822923   0.64127047   0.20408564
  182 1     3      0.00000      4.08978     14.31157      5.00357   #    C9   0.12022105   0.67583240   0.24365679
  183 1     3      0.00000      4.48292     12.63725      3.24855   #   C10   0.13315134   0.60118708   0.15819333
  184 1     3      0.00000      5.35596     11.88613      2.46122   #   C11   0.16029245   0.56770037   0.11985304
  185 1     3      0.00000      6.73847     12.02795      2.60987   #   C12   0.20256654   0.57402337   0.12709181
  186 1     2      0.00000      9.37379     14.04140      4.72038   #   C13   0.28222443   0.66378765   0.22986665
  187 1     3      0.00000     16.19108     11.03556      5.68688   #   C14   0.49160442   0.51421833   0.27693169
  188 1     3      0.00000     16.40443     11.02285      4.29874   #   C15   0.49849418   0.51884810   0.20933390
  189 1     3      0.00000      0.28609     20.10822      3.60194   #   C16   0.00252478   0.96252409   0.17540234
  190 1     3      0.00000     16.46955     18.90067      4.29910   #   C17   0.49840151   0.90126945   0.20935138
  191 1     3      0.00000     16.25631     18.89115      5.68686   #   C18   0.49152118   0.89556199   0.27693077
  192 1     3      0.00000     16.16784     20.11419      6.37419   #   C19   0.48831319   0.95233559   0.31040147
  193 1     3      0.00000      1.18158     10.73758      1.45422   #   C20   0.03298143   0.51575130   0.07081551
  194 1     2      0.00000      1.26088     11.53328     10.22805   #   C21   0.03298060   0.52121552   0.49807128
  195 1     3      0.00000     16.18721     14.65961      1.77087   #   C22   0.49151623   0.70494613   0.08623537
  196 1     3      0.00000      1.26218     14.79065      1.74012   #   C23   0.03430430   0.71142379   0.08473793
  197 1     3      0.00000      1.96170     14.76227      0.52183   #   C24   0.05604751   0.71465072   0.02541114
  198 1     3      0.00000      1.33620     15.39972      9.59212   #   C25   0.03442429   0.71131255   0.46710342
  199 1     3      0.00000     16.26018     15.26711      9.60287   #   C26   0.49160939   0.70483417   0.46762710
  200 1     3      0.00000     15.48712     14.49848      0.56292   #   C27   0.47041900   0.70168978   0.02741238