Created by Ryther's code on 2025-07-29 22:46:57.279174, modified by xyan11@uic.edu. 

    528 atoms
    616 bonds
    1096 angles
    1280 dihedrals
    256 impropers

    8 atom types
    16 bond types
    36 angle types
    6 dihedral types
    2 improper types

0.00000000 28.11890241 xlo xhi
0.00000000 29.98810297 ylo yhi
0.00000000 29.89815116 zlo zhi
-0.02778448 0.03162434 2.3210026 xy xz yz 

Masses 

    1    12.0107  #   C
    2    1.00794  #   H
    3    14.0067  #   N
    4    15.9994  #   O
    5    15.9994  #   O
    6     32.065  #   S
    7      65.38  #  Zn
    8      65.38  #  Zn

Pair Coeffs

    1       0.10500      3.43085  #  C_R C_R
    2       0.04400      2.57113  #  H_ H_
    3       0.06900      3.26069  #  N_2 N_2
    4       0.06000      3.11815  #  O_2_M O_2_M
    5       0.06000      3.11815  #  O_3_M O_3_M
    6       0.27400      3.59478  #  S_3 S_3
    7       0.06000      2.58361  #  Zn6f3 Zn6f3
    8       0.04000      2.67270  #  Zn8f4 Zn8f4

Bond Coeffs

    1      43.32822      2.51269  #  O_2_M Zn8f4 bond order=0.5
    2      18.86555      2.24262  #  H_ Zn8f4 bond order=0.5
    3      43.57940      2.59350  #  N_2 Zn8f4 bond order=0.5
    4      42.04147      2.53807  #  O_3_M Zn8f4 bond order=0.5
    5      54.94924      2.40433  #  O_2_M Zn6f3 bond order=0.5
    6      55.07699      2.48452  #  N_2 Zn6f3 bond order=0.5
    7     357.44038      1.08142  #  C_R H_ bond order=1.0
    8     559.99521      0.99025  #  H_ O_3_M bond order=1.0
    9      24.34887      2.13340  #  H_ Zn6f3 bond order=0.5
    10    931.53598      1.20133  #  C_R N_2 bond order=3.0
    11    462.65505      1.37926  #  C_R C_R bond order=1.5
    12    301.29678      1.78592  #  C_R S_3 bond order=1.0
    13    391.66951      1.45800  #  C_R C_R bond order=1.0
    14    714.55744      1.26901  #  C_R O_2_M bond order=1.5
    15    678.02790      1.29140  #  C_R O_3_M bond order=1.5
    16     53.24274      2.42975  #  O_3_M Zn6f3 bond order=0.5

Angle Coeffs

    1  fourier                 67.80662      0.34375      0.37500      0.28125  #  O_2_M Zn8f4 O_2_M
    2  fourier                 24.62448      0.34375      0.37500      0.28125  #  H_ Zn8f4 O_2_M
    3  fourier                 71.45583      0.34375      0.37500      0.28125  #  N_2 Zn8f4 O_2_M
    4  fourier                 66.78648      0.34375      0.37500      0.28125  #  O_2_M Zn8f4 O_3_M
    5  fourier                 25.79329      0.34375      0.37500      0.28125  #  H_ Zn8f4 N_2
    6  fourier                 24.20745      0.34375      0.37500      0.28125  #  H_ Zn8f4 O_3_M
    7  fourier                 70.41858      0.34375      0.37500      0.28125  #  N_2 Zn8f4 O_3_M
    8  cosine/periodic         67.02484            1            4  #  O_2_M Zn6f3 O_2_M
    9  cosine/periodic         70.47472            1            4  #  N_2 Zn6f3 O_2_M
    10 cosine/periodic         25.05849            1            1  #  O_3_M H_ Zn6f3
    11 cosine/periodic        179.74893           -1            3  #  C_R C_R N_2
    12 cosine/periodic        111.29751           -1            3  #  C_R C_R C_R
    13 cosine/periodic         57.28902           -1            3  #  C_R C_R H_
    14 cosine/periodic         48.24065           -1            3  #  H_ C_R S_3
    15 cosine/periodic        101.95051           -1            3  #  C_R C_R S_3
    16 cosine/periodic        102.18328           -1            3  #  C_R C_R C_R
    17 cosine/periodic        137.71425           -1            3  #  C_R C_R O_2_M
    18 cosine/periodic        206.77843           -1            3  #  O_2_M C_R O_2_M
    19 cosine/periodic        134.57449           -1            3  #  C_R C_R O_3_M
    20 cosine/periodic        201.38050           -1            3  #  O_2_M C_R O_3_M
    21 fourier                211.54307      0.25101      0.03669      0.25034  #  C_R S_3 C_R
    22 fourier                 38.69249      0.36401      0.41847      0.28800  #  C_R N_2 Zn8f4
    23 fourier                 48.02888      0.36401      0.41847      0.28800  #  C_R N_2 Zn6f3
    24 cosine/periodic         21.77718           -1            3  #  C_R O_2_M Zn6f3
    25 cosine/periodic         17.67091           -1            3  #  C_R O_2_M Zn8f4
    26 fourier                203.65891      0.30023      0.26733      0.26675  #  C_R O_3_M H_
    27 fourier                 22.33312      0.30023      0.26733      0.26675  #  H_ O_3_M Zn6f3
    28 fourier                 55.81766      0.30023      0.26733      0.26675  #  C_R O_3_M Zn6f3
    29 cosine/periodic         23.92551            1            4  #  H_ Zn6f3 O_3_M
    30 cosine/periodic         24.38538            1            4  #  H_ Zn6f3 O_2_M
    31 cosine/periodic         25.39208            1            4  #  H_ Zn6f3 N_2
    32 cosine/periodic         65.96675            1            4  #  O_2_M Zn6f3 O_3_M
    33 cosine/periodic         69.42201            1            4  #  N_2 Zn6f3 O_3_M
    34 cosine/periodic         20.34317            1            1  #  O_3_M H_ Zn8f4
    35 fourier                 17.70941      0.30023      0.26733      0.26675  #  H_ O_3_M Zn8f4
    36 fourier                 44.86565      0.30023      0.26733      0.26675  #  C_R O_3_M Zn8f4

Dihedral Coeffs

    1      27.96100           -1            2  #  X C_R N_2 X bond order=3.0
    2       6.73711           -1            2  #  X C_R C_R X bond order=1.5
    3       1.22984           -1            2  #  X C_R S_3 X bond order=1.0
    4       1.25000           -1            2  #  X C_R C_R X bond order=1.0
    5       6.73711           -1            2  #  X C_R O_2_M X bond order=1.5
    6       0.31957           -1            2  #  X C_R O_3_M X bond order=1.5

Improper Coeffs

    1       2.00000      1.00000     -1.00000      0.00000            1  #  C_R X X X O_2 present=False
    2      16.66667      1.00000     -1.00000      0.00000            1  #  C_R X X X O_2 present=True

Atoms # a, b, c, alpha, beta, gamma: 28.1189024052, 29.9881158364, 29.9881225808, 85.5610745255, 89.9395780351, 90.0530854838 $$$atoms$$$

    1 1     8      0.00000      0.51895     14.67400      0.22550   #   Zn1   0.01892998   0.48874363   0.00754240
    2 1     7      0.00000      3.44934     14.67718      0.22254   #   Zn2   0.12314451   0.48885720   0.00744325
    3 1     2      0.00000     10.66812     12.34492      2.33830   #    H1   0.37970600   0.40560738   0.07820898
    4 1     2      0.00000      9.07215      1.49796     14.57807   #    H2   0.32209891   0.01221342   0.48759100
    5 1     2      0.00000      1.22033     15.09806     14.22999   #    H3   0.04332466   0.46663107   0.47594885
    6 1     2      0.00000      3.37164     10.55655      1.88291   #    H4   0.12017866   0.34715014   0.06297763
    7 1     2      0.00000      3.38302      8.11573      1.87460   #    H5   0.12050336   0.26577898   0.06269969
    8 1     2      0.00000      0.61416      9.27393     13.52355   #    H6   0.02160375   0.27424533   0.45232055
    9 1     2      0.00000      0.62180     11.71433     13.51451   #    H7   0.02195619   0.35564748   0.45201839
   10 1     2      0.00000      2.06041      7.40296     13.01538   #    H8   0.07299609   0.21317028   0.43532391
   11 1     2      0.00000      2.04931      4.96256     13.01453   #    H9   0.07252066   0.13179362   0.43529557
   12 1     2      0.00000      1.95404      3.80183      2.38381   #   H10   0.06952151   0.12060698   0.07973106
   13 1     2      0.00000      1.93946      6.24264      2.38304   #   H11   0.06908351   0.20200150   0.07970539
   14 1     2      0.00000      3.30239     13.80212     11.19689   #   H12   0.11744857   0.43126790   0.37450105
   15 1     2      0.00000      3.30930     13.62107      8.76277   #   H13   0.11778634   0.43153170   0.29308739
   16 1     2      0.00000      0.69154      2.04039      8.50085   #   H14   0.02431911   0.04603382   0.28432708
   17 1     2      0.00000      0.70441      2.23782     10.93324   #   H15   0.02468574   0.04632057   0.36568298
   18 1     2      0.00000      2.15571      2.33596      6.59841   #   H16   0.07647587   0.06081479   0.22069635
   19 1     2      0.00000      2.13982      2.14853      4.16525   #   H17   0.07600237   0.06086345   0.13931461
   20 1     2      0.00000      1.85009     12.84525      4.49899   #   H18   0.06603791   0.41669840   0.15047708
   21 1     2      0.00000      1.84040     13.03549      6.93239   #   H19   0.06560161   0.41674281   0.23186698
   22 1     1      0.00000     11.50850     14.34540      0.52355   #    C1   0.40973146   0.47701439   0.01751106
   23 1     1      0.00000     10.17933     13.93995      0.89136   #    C2   0.36243372   0.46254182   0.02981315
   24 1     1      0.00000      9.92482     12.92744      1.80986   #    C3   0.35331217   0.42640043   0.06053423
   25 1     1      0.00000      7.86080     13.97322      0.86116   #    C4   0.27998166   0.46372960   0.02880321
   26 1     1      0.00000      9.02646     14.52941      0.35662   #    C5   0.32147477   0.48358266   0.01192778
   27 1     1      0.00000      6.52535     14.36431      0.50639   #    C6   0.23251563   0.47768935   0.01693711
   28 1     1      0.00000      1.98841     10.74766      0.22383   #    C7   0.07105934   0.35781817   0.00748638
   29 1     1      0.00000      2.76258     10.03473      1.15530   #    C8   0.09853044   0.33163313   0.03864104
   30 1     1      0.00000      2.76320      8.63698      1.15585   #    C9   0.09850664   0.28502128   0.03865953
   31 1     1      0.00000      1.99082      7.92133      0.22454   #   C10   0.07105210   0.26356769   0.00751013
   32 1     1      0.00000      1.23322      9.79625     14.24218   #   C11   0.04360785   0.28980237   0.47635671
   33 1     1      0.00000      1.23171     11.19406     14.24234   #   C12   0.04360034   0.33641420   0.47636187
   34 1     1      0.00000      1.99188      6.43581      0.22465   #   C13   0.07104097   0.21403043   0.00751380
   35 1     1      0.00000      2.02775      6.88119     13.96363   #   C14   0.07177911   0.19331628   0.46703980
   36 1     1      0.00000      2.02931      5.48338     13.96362   #   C15   0.07178849   0.14670410   0.46703942
   37 1     1      0.00000      1.99391      3.60947      0.22422   #   C16   0.07101972   0.11978288   0.00749947
   38 1     1      0.00000      1.97329      4.32310      1.43482   #   C17   0.07026139   0.14044602   0.04799021
   39 1     1      0.00000      1.97286      5.72085      1.43483   #   C18   0.07029215   0.18705643   0.04799066
   40 1     1      0.00000      1.99644     15.53225     11.25694   #   C19   0.07105963   0.48880622   0.37650955
   41 1     1      0.00000      2.72602     14.51416     10.61941   #   C20   0.09699793   0.45650681   0.35518615
   42 1     1      0.00000      2.72386     14.40546      9.22589   #   C21   0.09697323   0.45648935   0.30857711
   43 1     1      0.00000      1.99323     15.31280      8.43913   #   C22   0.07105127   0.48878280   0.28226275
   44 1     1      0.00000      1.27830      1.33688      9.07816   #   C23   0.04513970   0.02107983   0.30363607
   45 1     1      0.00000      1.27955      1.44493     10.47179   #   C24   0.04513198   0.02107495   0.35024865
   46 1     1      0.00000      1.99134     15.19773      6.95808   #   C25   0.07103995   0.48877959   0.23272608
   47 1     1      0.00000      2.07890      1.35266      6.15152   #   C26   0.07373005   0.02918221   0.20574908
   48 1     1      0.00000      2.07769      1.24448      4.75790   #   C27   0.07373945   0.02918219   0.15913684
   49 1     1      0.00000      1.98779     14.97943      4.14019   #   C28   0.07101942   0.48879483   0.13847630
   50 1     1      0.00000      1.91353     13.82986      4.94530   #   C29   0.06830838   0.44837636   0.16540483
   51 1     1      0.00000      1.91587     13.93799      6.33887   #   C30   0.06833906   0.44837462   0.21201536
   52 1     1      0.00000      1.98646     14.81128      2.65971   #   C31   0.07102622   0.48702005   0.08895888
   53 1     1      0.00000      1.99767     15.70041     12.73741   #   C32   0.07104941   0.49058135   0.42602681
   54 1     1      0.00000      1.99537      2.12042      0.17100   #   C33   0.07102502   0.07026605   0.00571955
   55 1     1      0.00000      1.98684     12.23671      0.27704   #   C34   0.07105057   0.40733481   0.00926616
   56 1     6      0.00000      8.25600     12.76398      1.95814   #    S1   0.29395215   0.42056564   0.06549371
   57 1     3      0.00000     12.57849     14.67183      0.22742   #    N1   0.44780654   0.48866645   0.00760647
   58 1     3      0.00000      5.44925     14.67944      0.22051   #    N2   0.19426795   0.48893802   0.00737552
   59 1     4      0.00000      3.11015     15.75800     13.23315   #    O1   0.11059485   0.49121826   0.44260762
   60 1     4      0.00000      3.09808     14.75610      2.16172   #    O2   0.11057720   0.48646900   0.07230268
   61 1     4      0.00000      3.10794      1.62190      0.15207   #    O3   0.11057570   0.05369120   0.00508634
   62 1     4      0.00000      3.09838     12.73764      0.29372   #    O4   0.11059631   0.42399606   0.00982393
   63 1     4      0.00000      0.88380      1.61949      0.15433   #    O5   0.03147815   0.05360477   0.00516171
   64 1     4      0.00000      0.87395     14.75370      2.16397   #    O6   0.03147965   0.48638311   0.07237803
   65 1     5      0.00000      0.88602     15.75559     13.23539   #    O7   0.03149730   0.49113235   0.44268243
   66 1     4      0.00000      0.87425     12.73524      0.29596   #    O8   0.03149876   0.42391015   0.00989878
   67 1     7      0.00000      0.53476     15.83450     15.17458   #   Zn1   0.01892998   0.48874363   0.50754240
   68 1     7      0.00000      3.46515     15.83768     15.17161   #   Zn2   0.12314451   0.48885720   0.50744325
   69 1     2      0.00000     10.68393     13.50542     17.28738   #    H1   0.37970600   0.40560738   0.57820898
   70 1     2      0.00000      9.08796      2.65846     29.52714   #    H2   0.32209891   0.01221342   0.98759100
   71 1     2      0.00000      1.23614     16.25856     29.17907   #    H3   0.04332466   0.46663107   0.97594885
   72 1     2      0.00000      3.38745     11.71705     16.83199   #    H4   0.12017866   0.34715014   0.56297763
   73 1     2      0.00000      3.39883      9.27623     16.82368   #    H5   0.12050336   0.26577898   0.56269969
   74 1     2      0.00000      0.62997     10.43444     28.47262   #    H6   0.02160375   0.27424533   0.95232055
   75 1     2      0.00000      0.63761     12.87483     28.46359   #    H7   0.02195619   0.35564748   0.95201839
   76 1     2      0.00000      2.07623      8.56346     27.96446   #    H8   0.07299609   0.21317028   0.93532391
   77 1     2      0.00000      2.06512      6.12306     27.96361   #    H9   0.07252066   0.13179362   0.93529557
   78 1     2      0.00000      1.96985      4.96233     17.33289   #   H10   0.06952151   0.12060698   0.57973106
   79 1     2      0.00000      1.95527      7.40314     17.33212   #   H11   0.06908351   0.20200150   0.57970539
   80 1     2      0.00000      3.31820     14.96263     26.14596   #   H12   0.11744857   0.43126790   0.87450105
   81 1     2      0.00000      3.32511     14.78157     23.71185   #   H13   0.11778634   0.43153170   0.79308739
   82 1     2      0.00000      0.70735      3.20089     23.44993   #   H14   0.02431911   0.04603382   0.78432708
   83 1     2      0.00000      0.72023      3.39832     25.88232   #   H15   0.02468574   0.04632057   0.86568298
   84 1     2      0.00000      2.17152      3.49646     21.54749   #   H16   0.07647587   0.06081479   0.72069635
   85 1     2      0.00000      2.15563      3.30903     19.11432   #   H17   0.07600237   0.06086345   0.63931461
   86 1     2      0.00000      1.86591     14.00575     19.44806   #   H18   0.06603791   0.41669840   0.65047708
   87 1     2      0.00000      1.85621     14.19599     21.88147   #   H19   0.06560161   0.41674281   0.73186698
   88 1     1      0.00000     11.52431     15.50590     15.47262   #    C1   0.40973146   0.47701439   0.51751106
   89 1     1      0.00000     10.19514     15.10045     15.84043   #    C2   0.36243372   0.46254182   0.52981315
   90 1     1      0.00000      9.94063     14.08794     16.75894   #    C3   0.35331217   0.42640043   0.56053423
   91 1     1      0.00000      7.87662     15.13372     15.81024   #    C4   0.27998166   0.46372960   0.52880321
   92 1     1      0.00000      9.04227     15.68991     15.30569   #    C5   0.32147477   0.48358266   0.51192778
   93 1     1      0.00000      6.54116     15.52481     15.45546   #    C6   0.23251563   0.47768935   0.51693711
   94 1     1      0.00000      2.00422     11.90817     15.17290   #    C7   0.07105934   0.35781817   0.50748638
   95 1     1      0.00000      2.77839     11.19524     16.10437   #    C8   0.09853044   0.33163313   0.53864104
   96 1     1      0.00000      2.77901      9.79748     16.10492   #    C9   0.09850664   0.28502128   0.53865953
   97 1     1      0.00000      2.00663      9.08183     15.17361   #   C10   0.07105210   0.26356769   0.50751013
   98 1     1      0.00000      1.24903     10.95675     29.19126   #   C11   0.04360785   0.28980237   0.97635671
   99 1     1      0.00000      1.24752     12.35456     29.19141   #   C12   0.04360034   0.33641420   0.97636187
  100 1     1      0.00000      2.00770      7.59631     15.17372   #   C13   0.07104097   0.21403043   0.50751380
  101 1     1      0.00000      2.04356      8.04169     28.91270   #   C14   0.07177911   0.19331628   0.96703980
  102 1     1      0.00000      2.04512      6.64388     28.91269   #   C15   0.07178849   0.14670410   0.96703942
  103 1     1      0.00000      2.00972      4.76997     15.17330   #   C16   0.07101972   0.11978288   0.50749947
  104 1     1      0.00000      1.98910      5.48360     16.38389   #   C17   0.07026139   0.14044602   0.54799021
  105 1     1      0.00000      1.98867      6.88136     16.38391   #   C18   0.07029215   0.18705643   0.54799066
  106 1     1      0.00000      2.01226     16.69275     26.20602   #   C19   0.07105963   0.48880622   0.87650955
  107 1     1      0.00000      2.74184     15.67466     25.56848   #   C20   0.09699793   0.45650681   0.85518615
  108 1     1      0.00000      2.73967     15.56596     24.17496   #   C21   0.09697323   0.45648935   0.80857711
  109 1     1      0.00000      2.00904     16.47330     23.38821   #   C22   0.07105127   0.48878280   0.78226275
  110 1     1      0.00000      1.29411      2.49739     24.02723   #   C23   0.04513970   0.02107983   0.80363607
  111 1     1      0.00000      1.29536      2.60543     25.42086   #   C24   0.04513198   0.02107495   0.85024865
  112 1     1      0.00000      2.00716     16.35823     21.90716   #   C25   0.07103995   0.48877959   0.73272608
  113 1     1      0.00000      2.09472      2.51316     21.10059   #   C26   0.07373005   0.02918221   0.70574908
  114 1     1      0.00000      2.09351      2.40498     19.70697   #   C27   0.07373945   0.02918219   0.65913684
  115 1     1      0.00000      2.00360     16.13993     19.08926   #   C28   0.07101942   0.48879483   0.63847630
  116 1     1      0.00000      1.92934     14.99036     19.89437   #   C29   0.06830838   0.44837636   0.66540483
  117 1     1      0.00000      1.93168     15.09849     21.28794   #   C30   0.06833906   0.44837462   0.71201536
  118 1     1      0.00000      2.00227     15.97178     17.60878   #   C31   0.07102622   0.48702005   0.58895888
  119 1     1      0.00000      2.01349     16.86091     27.68649   #   C32   0.07104941   0.49058135   0.92602681
  120 1     1      0.00000      2.01119      3.28092     15.12008   #   C33   0.07102502   0.07026605   0.50571955
  121 1     1      0.00000      2.00265     13.39721     15.22612   #   C34   0.07105057   0.40733481   0.50926616
  122 1     6      0.00000      8.27181     13.92448     16.90722   #    S1   0.29395215   0.42056564   0.56549371
  123 1     3      0.00000     12.59430     15.83234     15.17649   #    N1   0.44780654   0.48866645   0.50760647
  124 1     3      0.00000      5.46506     15.83994     15.16959   #    N2   0.19426795   0.48893802   0.50737552
  125 1     4      0.00000      3.12597     16.91850     28.18223   #    O1   0.11059485   0.49121826   0.94260762
  126 1     4      0.00000      3.11389     15.91660     17.11079   #    O2   0.11057720   0.48646900   0.57230268
  127 1     4      0.00000      3.12375      2.78240     15.10115   #    O3   0.11057570   0.05369120   0.50508634
  128 1     4      0.00000      3.11419     13.89814     15.24279   #    O4   0.11059631   0.42399606   0.50982393
  129 1     4      0.00000      0.89962      2.77999     15.10340   #    O5   0.03147815   0.05360477   0.50516171
  130 1     4      0.00000      0.88976     15.91420     17.11304   #    O6   0.03147965   0.48638311   0.57237803
  131 1     5      0.00000      0.90184     16.91610     28.18446   #    O7   0.03149730   0.49113235   0.94268243
  132 1     4      0.00000      0.89006     13.89574     15.24503   #    O8   0.03149876   0.42391015   0.50989878
  133 1     8      0.00000      0.50506     29.66805      0.22550   #   Zn1   0.01892998   0.98874363   0.00754240
  134 1     7      0.00000      3.43545     29.67123      0.22254   #   Zn2   0.12314451   0.98885720   0.00744325
  135 1     2      0.00000     10.65423     27.33897      2.33830   #    H1   0.37970600   0.90560738   0.07820898
  136 1     2      0.00000      9.05826     16.49201     14.57807   #    H2   0.32209891   0.51221342   0.48759100
  137 1     2      0.00000      1.20644     30.09211     14.22999   #    H3   0.04332466   0.96663107   0.47594885
  138 1     2      0.00000      3.35775     25.55060      1.88291   #    H4   0.12017866   0.84715014   0.06297763
  139 1     2      0.00000      3.36913     23.10978      1.87460   #    H5   0.12050336   0.76577898   0.06269969
  140 1     2      0.00000      0.60027     24.26799     13.52355   #    H6   0.02160375   0.77424533   0.45232055
  141 1     2      0.00000      0.60791     26.70838     13.51451   #    H7   0.02195619   0.85564748   0.45201839
  142 1     2      0.00000      2.04652     22.39701     13.01538   #    H8   0.07299609   0.71317028   0.43532391
  143 1     2      0.00000      2.03541     19.95661     13.01453   #    H9   0.07252066   0.63179362   0.43529557
  144 1     2      0.00000      1.94015     18.79588      2.38381   #   H10   0.06952151   0.62060698   0.07973106
  145 1     2      0.00000      1.92557     21.23669      2.38304   #   H11   0.06908351   0.70200150   0.07970539
  146 1     2      0.00000      3.28849     28.79618     11.19689   #   H12   0.11744857   0.93126790   0.37450105
  147 1     2      0.00000      3.29541     28.61513      8.76277   #   H13   0.11778634   0.93153170   0.29308739
  148 1     2      0.00000      0.67765     17.03444      8.50085   #   H14   0.02431911   0.54603382   0.28432708
  149 1     2      0.00000      0.69052     17.23187     10.93324   #   H15   0.02468574   0.54632057   0.36568298
  150 1     2      0.00000      2.14181     17.33001      6.59841   #   H16   0.07647587   0.56081479   0.22069635
  151 1     2      0.00000      2.12593     17.14258      4.16525   #   H17   0.07600237   0.56086345   0.13931461
  152 1     2      0.00000      1.83620     27.83930      4.49899   #   H18   0.06603791   0.91669840   0.15047708
  153 1     2      0.00000      1.82651     28.02954      6.93239   #   H19   0.06560161   0.91674281   0.23186698
  154 1     1      0.00000     11.49461     29.33945      0.52355   #    C1   0.40973146   0.97701439   0.01751106
  155 1     1      0.00000     10.16544     28.93400      0.89136   #    C2   0.36243372   0.96254182   0.02981315
  156 1     1      0.00000      9.91093     27.92149      1.80986   #    C3   0.35331217   0.92640043   0.06053423
  157 1     1      0.00000      7.84691     28.96727      0.86116   #    C4   0.27998166   0.96372960   0.02880321
  158 1     1      0.00000      9.01257     29.52346      0.35662   #    C5   0.32147477   0.98358266   0.01192778
  159 1     1      0.00000      6.51146     29.35836      0.50639   #    C6   0.23251563   0.97768935   0.01693711
  160 1     1      0.00000      1.97451     25.74172      0.22383   #    C7   0.07105934   0.85781817   0.00748638
  161 1     1      0.00000      2.74868     25.02879      1.15530   #    C8   0.09853044   0.83163313   0.03864104
  162 1     1      0.00000      2.74931     23.63103      1.15585   #    C9   0.09850664   0.78502128   0.03865953
  163 1     1      0.00000      1.97693     22.91538      0.22454   #   C10   0.07105210   0.76356769   0.00751013
  164 1     1      0.00000      1.21932     24.79030     14.24218   #   C11   0.04360785   0.78980237   0.47635671
  165 1     1      0.00000      1.21782     26.18811     14.24234   #   C12   0.04360034   0.83641420   0.47636187
  166 1     1      0.00000      1.97799     21.42986      0.22465   #   C13   0.07104097   0.71403043   0.00751380
  167 1     1      0.00000      2.01386     21.87524     13.96363   #   C14   0.07177911   0.69331628   0.46703980
  168 1     1      0.00000      2.01542     20.47743     13.96362   #   C15   0.07178849   0.64670410   0.46703942
  169 1     1      0.00000      1.98001     18.60352      0.22422   #   C16   0.07101972   0.61978288   0.00749947
  170 1     1      0.00000      1.95940     19.31715      1.43482   #   C17   0.07026139   0.64044602   0.04799021
  171 1     1      0.00000      1.95897     20.71491      1.43483   #   C18   0.07029215   0.68705643   0.04799066
  172 1     1      0.00000      1.98255     30.52630     11.25694   #   C19   0.07105963   0.98880622   0.37650955
  173 1     1      0.00000      2.71213     29.50821     10.61941   #   C20   0.09699793   0.95650681   0.35518615
  174 1     1      0.00000      2.70996     29.39951      9.22589   #   C21   0.09697323   0.95648935   0.30857711
  175 1     1      0.00000      1.97934     30.30685      8.43913   #   C22   0.07105127   0.98878280   0.28226275
  176 1     1      0.00000      1.26440     16.33094      9.07816   #   C23   0.04513970   0.52107983   0.30363607
  177 1     1      0.00000      1.26566     16.43898     10.47179   #   C24   0.04513198   0.52107495   0.35024865
  178 1     1      0.00000      1.97745     30.19178      6.95808   #   C25   0.07103995   0.98877959   0.23272608
  179 1     1      0.00000      2.06501     16.34671      6.15152   #   C26   0.07373005   0.52918221   0.20574908
  180 1     1      0.00000      2.06380     16.23853      4.75790   #   C27   0.07373945   0.52918219   0.15913684
  181 1     1      0.00000      1.97389     29.97348      4.14019   #   C28   0.07101942   0.98879483   0.13847630
  182 1     1      0.00000      1.89964     28.82391      4.94530   #   C29   0.06830838   0.94837636   0.16540483
  183 1     1      0.00000      1.90197     28.93204      6.33887   #   C30   0.06833906   0.94837462   0.21201536
  184 1     1      0.00000      1.97257     29.80533      2.65971   #   C31   0.07102622   0.98702005   0.08895888
  185 1     1      0.00000      1.98378     30.69446     12.73741   #   C32   0.07104941   0.99058135   0.42602681
  186 1     1      0.00000      1.98148     17.11447      0.17100   #   C33   0.07102502   0.57026605   0.00571955
  187 1     1      0.00000      1.97295     27.23076      0.27704   #   C34   0.07105057   0.90733481   0.00926616
  188 1     6      0.00000      8.24211     27.75803      1.95814   #    S1   0.29395215   0.92056564   0.06549371
  189 1     3      0.00000     12.56460     29.66589      0.22742   #    N1   0.44780654   0.98866645   0.00760647
  190 1     3      0.00000      5.43536     29.67349      0.22051   #    N2   0.19426795   0.98893802   0.00737552
  191 1     4      0.00000      3.09626     30.75205     13.23315   #    O1   0.11059485   0.99121826   0.44260762
  192 1     4      0.00000      3.08419     29.75015      2.16172   #    O2   0.11057720   0.98646900   0.07230268
  193 1     4      0.00000      3.09404     16.61595      0.15207   #    O3   0.11057570   0.55369120   0.00508634
  194 1     4      0.00000      3.08448     27.73169      0.29372   #    O4   0.11059631   0.92399606   0.00982393
  195 1     4      0.00000      0.86991     16.61354      0.15433   #    O5   0.03147815   0.55360477   0.00516171
  196 1     4      0.00000      0.86006     29.74775      2.16397   #    O6   0.03147965   0.98638311   0.07237803
  197 1     5      0.00000      0.87213     30.74965     13.23539   #    O7   0.03149730   0.99113235   0.44268243
  198 1     4      0.00000      0.86035     27.72929      0.29596   #    O8   0.03149876   0.92391015   0.00989878
  199 1     8      0.00000      0.52087     30.82855     15.17458   #   Zn1   0.01892998   0.98874363   0.50754240
  200 1     7      0.00000      3.45126     30.83173     15.17161   #   Zn2   0.12314451   0.98885720   0.50744325
  201 1     2      0.00000     10.67004     28.49947     17.28738   #    H1   0.37970600   0.90560738   0.57820898
  202 1     2      0.00000      9.07407     17.65251     29.52714   #    H2   0.32209891   0.51221342   0.98759100
  203 1     2      0.00000      1.22225     31.25261     29.17907   #    H3   0.04332466   0.96663107   0.97594885
  204 1     2      0.00000      3.37356     26.71110     16.83199   #    H4   0.12017866   0.84715014   0.56297763
  205 1     2      0.00000      3.38494     24.27029     16.82368   #    H5   0.12050336   0.76577898   0.56269969
  206 1     2      0.00000      0.61608     25.42849     28.47262   #    H6   0.02160375   0.77424533   0.95232055
  207 1     2      0.00000      0.62372     27.86888     28.46359   #    H7   0.02195619   0.85564748   0.95201839