ITEM: TIMESTEP
0
ITEM: NUMBER OF ATOMS
528
ITEM: BOX BOUNDS xy xz yz pp pp pp
-2.7784480000000000e-02 2.8150526750000001e+01 -2.7784480000000000e-02
0.0000000000000000e+00 3.2309105570000000e+01 3.1624340000000001e-02
0.0000000000000000e+00 2.9898151160000001e+01 2.3210025999999999e+00
ITEM: ATOMS id type element x y z q
12 2 H 1.95404 3.80183 2.38381 0
13 2 H 1.93946 6.24264 2.38304 0
18 2 H 2.15571 2.33596 6.59841 0
19 2 H 2.13982 2.14853 4.16525 0
31 1 C 1.99082 7.92133 0.22454 0
34 1 C 1.99188 6.43581 0.22465 0
37 1 C 1.99391 3.60947 0.22422 0
38 1 C 1.97329 4.3231 1.43482 0
39 1 C 1.97286 5.72085 1.43483 0
47 1 C 2.0789 1.35266 6.15152 0
48 1 C 2.07769 1.24448 4.7579 0
54 1 C 1.99537 2.12042 0.171 0
61 4 O 3.10794 1.6219 0.15207 0
63 4 O 0.8838 1.61949 0.15433 0
276 2 H 16.0135 3.80183 2.38381 0
277 2 H 15.9989 6.24264 2.38304 0
282 2 H 16.2152 2.33596 6.59841 0
283 2 H 16.1993 2.14853 4.16525 0
295 1 C 16.0503 7.92133 0.22454 0
298 1 C 16.0513 6.43581 0.22465 0
301 1 C 16.0534 3.60947 0.22422 0
302 1 C 16.0327 4.3231 1.43482 0
303 1 C 16.0323 5.72085 1.43483 0
311 1 C 16.1384 1.35266 6.15152 0
312 1 C 16.1372 1.24448 4.7579 0
318 1 C 16.0548 2.12042 0.171 0
325 4 O 17.1674 1.6219 0.15207 0
327 4 O 14.9433 1.61949 0.15433 0
1 8 Zn 0.51895 14.674 0.2255 0
2 7 Zn 3.44934 14.6772 0.22254 0
6 2 H 3.37164 10.5566 1.88291 0
7 2 H 3.38302 8.11573 1.8746 0
20 2 H 1.85009 12.8453 4.49899 0
21 2 H 1.8404 13.0355 6.93239 0
25 1 C 7.8608 13.9732 0.861169 0
26 1 C 9.02646 14.5294 0.35662 0
27 1 C 6.52536 14.3643 0.506369 0
28 1 C 1.98841 10.7477 0.22383 0
29 1 C 2.76258 10.0347 1.1553 0
30 1 C 2.7632 8.63698 1.15585 0
46 1 C 1.99134 15.1977 6.95808 0
49 1 C 1.98779 14.9794 4.14019 0
50 1 C 1.91353 13.8299 4.9453 0
51 1 C 1.91587 13.938 6.33887 0
52 1 C 1.98646 14.8113 2.65971 0
55 1 C 1.98684 12.2367 0.27704 0
56 6 S 8.256 12.764 1.95814 0
58 3 N 5.44924 14.6794 0.220522 0
60 4 O 3.09808 14.7561 2.16172 0
62 4 O 3.09838 12.7376 0.29372 0
64 4 O 0.87395 14.7537 2.16397 0
66 4 O 0.87425 12.7352 0.29596 0
3 2 H 10.6681 12.3449 2.3383 0
22 1 C 11.5085 14.3454 0.523553 0
23 1 C 10.1793 13.94 0.891358 0
24 1 C 9.92482 12.9274 1.80986 0
57 3 N 12.5785 14.6718 0.227418 0
265 8 Zn 14.5784 14.674 0.2255 0
266 7 Zn 17.5088 14.6772 0.22254 0
270 2 H 17.4311 10.5566 1.88291 0
271 2 H 17.4425 8.11573 1.8746 0
284 2 H 15.9096 12.8453 4.49899 0
285 2 H 15.8999 13.0355 6.93239 0
292 1 C 16.0479 10.7477 0.22383 0
293 1 C 16.822 10.0347 1.1553 0
294 1 C 16.8227 8.63698 1.15585 0
310 1 C 16.0508 15.1977 6.95808 0
313 1 C 16.0472 14.9794 4.14019 0
314 1 C 15.973 13.8299 4.9453 0
315 1 C 15.9753 13.938 6.33887 0
316 1 C 16.0459 14.8113 2.65971 0
319 1 C 16.0463 12.2367 0.27704 0
324 4 O 17.1575 14.7561 2.16172 0
326 4 O 17.1578 12.7376 0.29372 0
328 4 O 14.9334 14.7537 2.16397 0
330 4 O 14.9337 12.7352 0.29596 0
267 2 H 24.7276 12.3449 2.3383 0
286 1 C 25.568 14.3454 0.523553 0
287 1 C 24.2388 13.94 0.891358 0
288 1 C 23.9843 12.9274 1.80986 0
289 1 C 21.9202 13.9732 0.861169 0
290 1 C 23.0859 14.5294 0.35662 0
291 1 C 20.5848 14.3643 0.506369 0
320 6 S 22.3154 12.764 1.95814 0
321 3 N 26.6379 14.6718 0.227418 0
322 3 N 19.5087 14.6794 0.220522 0
139 2 H 3.36913 23.1098 1.8746 0
144 2 H 1.94015 18.7959 2.38381 0
145 2 H 1.92557 21.2367 2.38304 0
150 2 H 2.14181 17.33 6.59841 0
151 2 H 2.12593 17.1426 4.16525 0
162 1 C 2.74931 23.631 1.15585 0
163 1 C 1.97693 22.9154 0.22454 0
166 1 C 1.97799 21.4299 0.22465 0
169 1 C 1.98001 18.6035 0.22422 0
170 1 C 1.9594 19.3171 1.43482 0
171 1 C 1.95897 20.7149 1.43483 0
179 1 C 2.06501 16.3467 6.15152 0
180 1 C 2.0638 16.2385 4.7579 0
186 1 C 1.98148 17.1145 0.171 0
193 4 O 3.09404 16.6159 0.15207 0
195 4 O 0.86991 16.6135 0.15433 0
403 2 H 17.4286 23.1098 1.8746 0
408 2 H 15.9996 18.7959 2.38381 0
409 2 H 15.985 21.2367 2.38304 0
414 2 H 16.2013 17.33 6.59841 0
415 2 H 16.1854 17.1426 4.16525 0
426 1 C 16.8088 23.631 1.15585 0
427 1 C 16.0364 22.9154 0.22454 0
430 1 C 16.0374 21.4299 0.22465 0
433 1 C 16.0395 18.6035 0.22422 0
434 1 C 16.0188 19.3171 1.43482 0
435 1 C 16.0184 20.7149 1.43483 0
443 1 C 16.1245 16.3467 6.15152 0
444 1 C 16.1233 16.2385 4.7579 0
450 1 C 16.0409 17.1145 0.171 0
457 4 O 17.1535 16.6159 0.15207 0
459 4 O 14.9294 16.6135 0.15433 0
133 8 Zn 0.50506 29.668 0.2255 0
134 7 Zn 3.43545 29.6712 0.22254 0
138 2 H 3.35775 25.5506 1.88291 0
152 2 H 1.8362 27.8393 4.49899 0
153 2 H 1.82651 28.0295 6.93239 0
157 1 C 7.84691 28.9673 0.861169 0
158 1 C 9.01257 29.5235 0.35662 0
159 1 C 6.51147 29.3584 0.506369 0
160 1 C 1.97451 25.7417 0.22383 0
161 1 C 2.74868 25.0288 1.1553 0
178 1 C 1.97745 30.1918 6.95808 0
181 1 C 1.97389 29.9735 4.14019 0
182 1 C 1.89964 28.8239 4.9453 0
183 1 C 1.90197 28.932 6.33887 0
184 1 C 1.97257 29.8053 2.65971 0
187 1 C 1.97295 27.2308 0.27704 0
188 6 S 8.24211 27.758 1.95814 0
190 3 N 5.43535 29.6735 0.220522 0
192 4 O 3.08419 29.7501 2.16172 0
194 4 O 3.08448 27.7317 0.29372 0
196 4 O 0.86006 29.7477 2.16397 0
198 4 O 0.86035 27.7293 0.29596 0
135 2 H 10.6542 27.339 2.3383 0
154 1 C 11.4946 29.3394 0.523556 0
155 1 C 10.1654 28.934 0.891357 0
156 1 C 9.91093 27.9215 1.80986 0
189 3 N 12.5646 29.6659 0.227417 0
397 8 Zn 14.5645 29.668 0.2255 0
398 7 Zn 17.4949 29.6712 0.22254 0
402 2 H 17.4172 25.5506 1.88291 0
416 2 H 15.8957 27.8393 4.49899 0
417 2 H 15.886 28.0295 6.93239 0
424 1 C 16.034 25.7417 0.22383 0
425 1 C 16.8081 25.0288 1.1553 0
442 1 C 16.0369 30.1918 6.95808 0
445 1 C 16.0333 29.9735 4.14019 0
446 1 C 15.9591 28.8239 4.9453 0
447 1 C 15.9614 28.932 6.33887 0
448 1 C 16.032 29.8053 2.65971 0
451 1 C 16.0324 27.2308 0.27704 0
456 4 O 17.1436 29.7501 2.16172 0
458 4 O 17.1439 27.7317 0.29372 0
460 4 O 14.9195 29.7477 2.16397 0
462 4 O 14.9198 27.7293 0.29596 0
399 2 H 24.7137 27.339 2.3383 0
418 1 C 25.5541 29.3394 0.523556 0
419 1 C 24.2249 28.934 0.891357 0
420 1 C 23.9704 27.9215 1.80986 0
421 1 C 21.9064 28.9673 0.861169 0
422 1 C 23.072 29.5235 0.35662 0
423 1 C 20.5709 29.3584 0.506369 0
452 6 S 22.3016 27.758 1.95814 0
453 3 N 26.624 29.6659 0.227417 0
454 3 N 19.4948 29.6735 0.220522 0
4 2 H 9.07215 1.49796 14.5781 0
10 2 H 2.06041 7.40296 13.0154 0
11 2 H 2.04931 4.96256 13.0145 0
16 2 H 0.69154 2.04039 8.50085 0
17 2 H 0.70441 2.23782 10.9332 0
35 1 C 2.02775 6.88119 13.9636 0
36 1 C 2.02931 5.48338 13.9636 0
44 1 C 1.2783 1.33688 9.07816 0
45 1 C 1.27955 1.44493 10.4718 0
274 2 H 16.1199 7.40296 13.0154 0
275 2 H 16.1088 4.96256 13.0145 0
280 2 H 14.751 2.04039 8.50085 0
281 2 H 14.7639 2.23782 10.9332 0
299 1 C 16.0872 6.88119 13.9636 0
300 1 C 16.0888 5.48338 13.9636 0
308 1 C 15.3377 1.33688 9.07816 0
309 1 C 15.339 1.44493 10.4718 0
268 2 H 23.1316 1.49796 14.5781 0
5 2 H 1.22033 15.0981 14.23 0
8 2 H 0.61416 9.27393 13.5235 0
9 2 H 0.6218 11.7143 13.5145 0
14 2 H 3.30239 13.8021 11.1969 0
15 2 H 3.3093 13.6211 8.76277 0
32 1 C 1.23322 9.79625 14.2422 0
33 1 C 1.23171 11.1941 14.2423 0
40 1 C 1.99644 15.5323 11.2569 0
41 1 C 2.72602 14.5142 10.6194 0
42 1 C 2.72386 14.4055 9.22589 0
43 1 C 1.99323 15.3128 8.43913 0
53 1 C 1.99767 15.7004 12.7374 0
59 4 O 3.11015 15.758 13.2332 0
65 5 O 0.88602 15.7556 13.2354 0
269 2 H 15.2798 15.0981 14.23 0
272 2 H 14.6736 9.27393 13.5235 0
273 2 H 14.6813 11.7143 13.5145 0
278 2 H 17.3618 13.8021 11.1969 0
279 2 H 17.3687 13.6211 8.76277 0
296 1 C 15.2927 9.79625 14.2422 0
297 1 C 15.2912 11.1941 14.2423 0
304 1 C 16.0559 15.5323 11.2569 0
305 1 C 16.7855 14.5142 10.6194 0
306 1 C 16.7833 14.4055 9.22589 0
307 1 C 16.0527 15.3128 8.43913 0
317 1 C 16.0571 15.7004 12.7374 0
323 4 O 17.1696 15.758 13.2332 0
329 5 O 14.9455 15.7556 13.2354 0
136 2 H 9.05826 16.492 14.5781 0
142 2 H 2.04652 22.397 13.0154 0
143 2 H 2.03541 19.9566 13.0145 0
148 2 H 0.67765 17.0344 8.50085 0
149 2 H 0.69052 17.2319 10.9332 0
167 1 C 2.01386 21.8752 13.9636 0
168 1 C 2.01542 20.4774 13.9636 0
176 1 C 1.2644 16.3309 9.07816 0
177 1 C 1.26566 16.439 10.4718 0
406 2 H 16.106 22.397 13.0154 0
407 2 H 16.0949 19.9566 13.0145 0
412 2 H 14.7371 17.0344 8.50085 0
413 2 H 14.75 17.2319 10.9332 0
431 1 C 16.0733 21.8752 13.9636 0
432 1 C 16.0749 20.4774 13.9636 0
440 1 C 15.3238 16.3309 9.07816 0
441 1 C 15.3251 16.439 10.4718 0
400 2 H 23.1177 16.492 14.5781 0
137 2 H 1.20644 30.0921 14.23 0
140 2 H 0.60027 24.268 13.5235 0
141 2 H 0.60791 26.7084 13.5145 0
146 2 H 3.28849 28.7962 11.1969 0
147 2 H 3.29541 28.6151 8.76277 0
164 1 C 1.21932 24.7903 14.2422 0
165 1 C 1.21782 26.1881 14.2423 0
172 1 C 1.98255 30.5263 11.2569 0
173 1 C 2.71213 29.5082 10.6194 0
174 1 C 2.70996 29.3995 9.22589 0
175 1 C 1.97934 30.3069 8.43913 0
185 1 C 1.98378 30.6945 12.7374 0
191 4 O 3.09626 30.7521 13.2332 0
197 5 O 0.87213 30.7496 13.2354 0
401 2 H 15.2659 30.0921 14.23 0
404 2 H 14.6597 24.268 13.5235 0
405 2 H 14.6674 26.7084 13.5145 0
410 2 H 17.3479 28.7962 11.1969 0
411 2 H 17.3549 28.6151 8.76277 0
428 1 C 15.2788 24.7903 14.2422 0
429 1 C 15.2773 26.1881 14.2423 0
436 1 C 16.042 30.5263 11.2569 0
437 1 C 16.7716 29.5082 10.6194 0
438 1 C 16.7694 29.3995 9.22589 0
439 1 C 16.0388 30.3069 8.43913 0
449 1 C 16.0432 30.6945 12.7374 0
455 4 O 17.1557 30.7521 13.2332 0
461 5 O 14.9316 30.7496 13.2354 0
78 2 H 1.96985 4.96233 17.3329 0
79 2 H 1.95527 7.40314 17.3321 0
84 2 H 2.17152 3.49646 21.5475 0
85 2 H 2.15563 3.30903 19.1143 0
100 1 C 2.0077 7.59631 15.1737 0
103 1 C 2.00972 4.76997 15.1733 0
104 1 C 1.9891 5.4836 16.3839 0
105 1 C 1.98867 6.88136 16.3839 0
113 1 C 2.09472 2.51316 21.1006 0
114 1 C 2.09351 2.40498 19.707 0
120 1 C 2.01119 3.28092 15.1201 0
127 4 O 3.12375 2.7824 15.1012 0
129 4 O 0.89962 2.77999 15.1034 0
342 2 H 16.0293 4.96233 17.3329 0
343 2 H 16.0147 7.40314 17.3321 0
348 2 H 16.231 3.49646 21.5475 0
349 2 H 16.2151 3.30903 19.1143 0
364 1 C 16.0671 7.59631 15.1737 0
367 1 C 16.0692 4.76997 15.1733 0
368 1 C 16.0485 5.4836 16.3839 0
369 1 C 16.0481 6.88136 16.3839 0
377 1 C 16.1542 2.51316 21.1006 0
378 1 C 16.153 2.40498 19.707 0
384 1 C 16.0706 3.28092 15.1201 0
391 4 O 17.1832 2.7824 15.1012 0
393 4 O 14.9591 2.77999 15.1034 0
67 7 Zn 0.53476 15.8345 15.1746 0
68 7 Zn 3.46515 15.8377 15.1716 0
72 2 H 3.38745 11.7171 16.832 0
73 2 H 3.39883 9.27623 16.8237 0
86 2 H 1.86591 14.0058 19.4481 0
87 2 H 1.85621 14.196 21.8815 0
91 1 C 7.8766 15.1337 15.8103 0
92 1 C 9.04227 15.6899 15.3057 0
93 1 C 6.54122 15.5249 15.4554 0
94 1 C 2.00422 11.9082 15.1729 0
95 1 C 2.77839 11.1952 16.1044 0
96 1 C 2.77901 9.79748 16.1049 0
97 1 C 2.00663 9.08183 15.1736 0
115 1 C 2.0036 16.1399 19.0893 0
116 1 C 1.92934 14.9904 19.8944 0
117 1 C 1.93168 15.0985 21.2879 0
118 1 C 2.00227 15.9718 17.6088 0
121 1 C 2.00265 13.3972 15.2261 0
122 6 S 8.27181 13.9245 16.9072 0
124 3 N 5.46503 15.8399 15.1696 0
126 4 O 3.11389 15.9166 17.1108 0
128 4 O 3.11419 13.8981 15.2428 0
130 4 O 0.88976 15.9142 17.113 0
132 4 O 0.89006 13.8957 15.245 0
69 2 H 10.6839 13.5054 17.2874 0
88 1 C 11.5243 15.5059 15.4726 0
89 1 C 10.1951 15.1005 15.8404 0
90 1 C 9.94063 14.0879 16.7589 0
123 3 N 12.5943 15.8323 15.1765 0
331 7 Zn 14.5942 15.8345 15.1746 0
332 7 Zn 17.5246 15.8377 15.1716 0
336 2 H 17.4469 11.7171 16.832 0
337 2 H 17.4583 9.27623 16.8237 0
350 2 H 15.9254 14.0058 19.4481 0
351 2 H 15.9157 14.196 21.8815 0
358 1 C 16.0637 11.9082 15.1729 0
359 1 C 16.8378 11.1952 16.1044 0
360 1 C 16.8385 9.79748 16.1049 0
361 1 C 16.0661 9.08183 15.1736 0
379 1 C 16.063 16.1399 19.0893 0
380 1 C 15.9888 14.9904 19.8944 0
381 1 C 15.9911 15.0985 21.2879 0
382 1 C 16.0617 15.9718 17.6088 0
385 1 C 16.0621 13.3972 15.2261 0
390 4 O 17.1733 15.9166 17.1108 0
392 4 O 17.1736 13.8981 15.2428 0
394 4 O 14.9492 15.9142 17.113 0
396 4 O 14.9495 13.8957 15.245 0
333 2 H 24.7434 13.5054 17.2874 0
352 1 C 25.5838 15.5059 15.4726 0
353 1 C 24.2546 15.1005 15.8404 0
354 1 C 24.0001 14.0879 16.7589 0
355 1 C 21.936 15.1337 15.8103 0
356 1 C 23.1017 15.6899 15.3057 0
357 1 C 20.6007 15.5249 15.4554 0
386 6 S 22.3313 13.9245 16.9072 0
387 3 N 26.6538 15.8323 15.1765 0
388 3 N 19.5245 15.8399 15.1696 0
112 1 C 2.00716 16.3582 21.9072 0
210 2 H 1.95596 19.9564 17.3329 0
211 2 H 1.94138 22.3972 17.3321 0
216 2 H 2.15763 18.4905 21.5475 0
217 2 H 2.14174 18.3031 19.1143 0
229 1 C 1.99274 24.0759 15.1736 0
232 1 C 1.9938 22.5904 15.1737 0
235 1 C 1.99583 19.764 15.1733 0
236 1 C 1.97521 20.4776 16.3839 0
237 1 C 1.97478 21.8754 16.3839 0
245 1 C 2.08082 17.5072 21.1006 0
246 1 C 2.07961 17.399 19.707 0
252 1 C 1.99729 18.275 15.1201 0
259 4 O 3.10986 17.7765 15.1012 0
261 4 O 0.88572 17.774 15.1034 0
376 1 C 16.0666 16.3582 21.9072 0
474 2 H 16.0154 19.9564 17.3329 0
475 2 H 16.0008 22.3972 17.3321 0
480 2 H 16.2171 18.4905 21.5475 0
481 2 H 16.2012 18.3031 19.1143 0
493 1 C 16.0522 24.0759 15.1736 0
496 1 C 16.0533 22.5904 15.1737 0
499 1 C 16.0553 19.764 15.1733 0
500 1 C 16.0347 20.4776 16.3839 0
501 1 C 16.0342 21.8754 16.3839 0
509 1 C 16.1403 17.5072 21.1006 0
510 1 C 16.1391 17.399 19.707 0
516 1 C 16.0567 18.275 15.1201 0
523 4 O 17.1693 17.7765 15.1012 0
525 4 O 14.9452 17.774 15.1034 0
199 8 Zn 0.52087 30.8285 15.1746 0
200 7 Zn 3.45126 30.8317 15.1716 0
204 2 H 3.37356 26.7111 16.832 0
205 2 H 3.38494 24.2703 16.8237 0
218 2 H 1.85201 28.9998 19.4481 0
219 2 H 1.84232 29.19 21.8815 0
223 1 C 7.86273 30.1278 15.8102 0
224 1 C 9.02838 30.684 15.3057 0
225 1 C 6.52726 30.5188 15.4555 0
226 1 C 1.99033 26.9022 15.1729 0
227 1 C 2.7645 26.1893 16.1044 0
228 1 C 2.76512 24.7915 16.1049 0
244 1 C 1.99326 31.3523 21.9072 0
247 1 C 1.98971 31.134 19.0893 0
248 1 C 1.91545 29.9844 19.8944 0
249 1 C 1.91779 30.0926 21.2879 0
250 1 C 1.98838 30.9658 17.6088 0
253 1 C 1.98876 28.3913 15.2261 0
254 6 S 8.25792 28.9185 16.9072 0
256 3 N 5.45118 30.834 15.1696 0
258 4 O 3.1 30.9106 17.1108 0
260 4 O 3.1003 28.8922 15.2428 0
262 4 O 0.87587 30.9082 17.113 0
264 4 O 0.87617 28.8898 15.245 0
201 2 H 10.67 28.4995 17.2874 0
220 1 C 11.5104 30.4999 15.4726 0
221 1 C 10.1812 30.0945 15.8404 0
222 1 C 9.92674 29.082 16.7589 0
255 3 N 12.5804 30.8264 15.1765 0
463 8 Zn 14.5803 30.8285 15.1746 0
464 7 Zn 17.5107 30.8317 15.1716 0
468 2 H 17.433 26.7111 16.832 0
469 2 H 17.4444 24.2703 16.8237 0
482 2 H 15.9115 28.9998 19.4481 0
483 2 H 15.9018 29.19 21.8815 0
490 1 C 16.0498 26.9022 15.1729 0
491 1 C 16.824 26.1893 16.1044 0
492 1 C 16.8246 24.7915 16.1049 0
508 1 C 16.0527 31.3523 21.9072 0
511 1 C 16.0492 31.134 19.0893 0
512 1 C 15.9749 29.9844 19.8944 0
513 1 C 15.9772 30.0926 21.2879 0
514 1 C 16.0478 30.9658 17.6088 0
517 1 C 16.0482 28.3913 15.2261 0
522 4 O 17.1595 30.9106 17.1108 0
524 4 O 17.1598 28.8922 15.2428 0
526 4 O 14.9353 30.9082 17.113 0
528 4 O 14.9356 28.8898 15.245 0
465 2 H 24.7295 28.4995 17.2874 0
484 1 C 25.5699 30.4999 15.4726 0
485 1 C 24.2407 30.0945 15.8404 0
486 1 C 23.9862 29.082 16.7589 0
487 1 C 21.9222 30.1278 15.8102 0
488 1 C 23.0878 30.684 15.3057 0
489 1 C 20.5867 30.5188 15.4555 0
518 6 S 22.3174 28.9185 16.9072 0
519 3 N 26.6399 30.8264 15.1765 0
520 3 N 19.5106 30.834 15.1696 0
70 2 H 9.08796 2.65846 29.5271 0
77 2 H 2.06512 6.12306 27.9636 0
82 2 H 0.70735 3.20089 23.4499 0
83 2 H 0.72023 3.39832 25.8823 0
101 1 C 2.04356 8.04169 28.9127 0
102 1 C 2.04512 6.64388 28.9127 0
110 1 C 1.29411 2.49739 24.0272 0
111 1 C 1.29536 2.60543 25.4209 0
341 2 H 16.1246 6.12306 27.9636 0
346 2 H 14.7668 3.20089 23.4499 0
347 2 H 14.7797 3.39832 25.8823 0
365 1 C 16.103 8.04169 28.9127 0
366 1 C 16.1046 6.64388 28.9127 0
374 1 C 15.3536 2.49739 24.0272 0
375 1 C 15.3548 2.60543 25.4209 0
334 2 H 23.1474 2.65846 29.5271 0
74 2 H 0.62997 10.4344 28.4726 0
75 2 H 0.63761 12.8748 28.4636 0
76 2 H 2.07623 8.56346 27.9645 0
80 2 H 3.3182 14.9626 26.146 0
81 2 H 3.32511 14.7816 23.7119 0
98 1 C 1.24903 10.9568 29.1913 0
99 1 C 1.24752 12.3546 29.1914 0
107 1 C 2.74184 15.6747 25.5685 0
108 1 C 2.73967 15.566 24.175 0
338 2 H 14.6894 10.4344 28.4726 0
339 2 H 14.6971 12.8748 28.4636 0
340 2 H 16.1357 8.56346 27.9645 0
344 2 H 17.3776 14.9626 26.146 0
345 2 H 17.3846 14.7816 23.7119 0
362 1 C 15.3085 10.9568 29.1913 0
363 1 C 15.307 12.3546 29.1914 0
371 1 C 16.8013 15.6747 25.5685 0
372 1 C 16.7991 15.566 24.175 0
71 2 H 1.23614 16.2586 29.1791 0
106 1 C 2.01226 16.6928 26.206 0
109 1 C 2.00904 16.4733 23.3882 0
119 1 C 2.01349 16.8609 27.6865 0
125 4 O 3.12597 16.9185 28.1822 0
131 5 O 0.90184 16.9161 28.1845 0
202 2 H 9.07407 17.6525 29.5271 0
208 2 H 2.06233 23.5575 27.9645 0
209 2 H 2.05123 21.1171 27.9636 0
214 2 H 0.69346 18.1949 23.4499 0
215 2 H 0.70633 18.3924 25.8823 0
233 1 C 2.02967 23.0357 28.9127 0
234 1 C 2.03123 21.6379 28.9127 0
242 1 C 1.28022 17.4914 24.0272 0
243 1 C 1.28147 17.5995 25.4209 0
335 2 H 15.2956 16.2586 29.1791 0
370 1 C 16.0717 16.6928 26.206 0
373 1 C 16.0685 16.4733 23.3882 0
383 1 C 16.0729 16.8609 27.6865 0
389 4 O 17.1854 16.9185 28.1822 0
395 5 O 14.9613 16.9161 28.1845 0
472 2 H 16.1218 23.5575 27.9645 0
473 2 H 16.1107 21.1171 27.9636 0
478 2 H 14.7529 18.1949 23.4499 0
479 2 H 14.7658 18.3924 25.8823 0
497 1 C 16.0891 23.0357 28.9127 0
498 1 C 16.0907 21.6379 28.9127 0
506 1 C 15.3397 17.4914 24.0272 0
507 1 C 15.3409 17.5995 25.4209 0
466 2 H 23.1335 17.6525 29.5271 0
203 2 H 1.22225 31.2526 29.1791 0
206 2 H 0.61608 25.4285 28.4726 0
207 2 H 0.62372 27.8689 28.4636 0
212 2 H 3.30431 29.9567 26.146 0
213 2 H 3.31122 29.7756 23.7119 0
230 1 C 1.23514 25.9508 29.1913 0
231 1 C 1.23363 27.3486 29.1914 0
238 1 C 1.99836 31.6868 26.206 0
239 1 C 2.72794 30.6687 25.5685 0
240 1 C 2.72578 30.56 24.175 0
241 1 C 1.99515 31.4674 23.3882 0
251 1 C 1.99959 31.855 27.6865 0
257 4 O 3.11207 31.9126 28.1822 0
263 5 O 0.88794 31.9101 28.1845 0
467 2 H 15.2817 31.2526 29.1791 0
470 2 H 14.6755 25.4285 28.4726 0
471 2 H 14.6832 27.8689 28.4636 0
476 2 H 17.3638 29.9567 26.146 0
477 2 H 17.3707 29.7756 23.7119 0
494 1 C 15.2946 25.9508 29.1913 0
495 1 C 15.2931 27.3486 29.1914 0
502 1 C 16.0578 31.6868 26.206 0
503 1 C 16.7874 30.6687 25.5685 0
504 1 C 16.7852 30.56 24.175 0
505 1 C 16.0546 31.4674 23.3882 0
515 1 C 16.059 31.855 27.6865 0
521 4 O 17.1715 31.9126 28.1822 0
527 5 O 14.9474 31.9101 28.1845 0
