LAMMPS (29 Aug 2024 - Update 3)
  using 1 OpenMP thread(s) per MPI task
units           real
atom_style      full
boundary        p p p

bond_style      harmonic
angle_style     hybrid cosine/periodic fourier
dihedral_style  harmonic
improper_style  fourier

dielectric      1.0
pair_style      lj/cut 12.5
pair_modify     shift yes mix geometric
special_bonds   lj 0.0 0.0 1.0
box             tilt large

The 'box' command has been removed and will be ignored

read_data       data.lmp
Reading data file ...
  triclinic box = (0 0 0) to (28.118902 29.988103 29.898151) with tilt (-0.02778448 0.03162434 2.3210026)
  1 by 1 by 1 MPI processor grid
WARNING: Atom style in data file a, b, c, alpha, beta, gamma: 28.1189024052, 29.9881158364, 29.9881225808, 85.5610745255, 89.9395780351, 90.0530854838 $$$atoms$$$ differs from currently defined atom style full (src/src/read_data.cpp:706)
  reading atoms ...
  528 atoms
  scanning bonds ...
  6 = max bonds/atom
  scanning angles ...
  15 = max angles/atom
  scanning dihedrals ...
  12 = max dihedrals/atom
  scanning impropers ...
  2 = max impropers/atom
  triclinic box = (0 0 0) to (28.118902 29.988103 29.898151) with tilt (-0.02778448 0.03162434 2.3210026)
  1 by 1 by 1 MPI processor grid
  reading bonds ...
  616 bonds
  reading angles ...
  1096 angles
  reading dihedrals ...
  1280 dihedrals
  reading impropers ...
  256 impropers
Finding 1-2 1-3 1-4 neighbors ...
  special bond factors lj:    0        0        1       
  special bond factors coul:  0        0        0       
     6 = max # of 1-2 neighbors
     8 = max # of 1-3 neighbors
    21 = max # of 1-4 neighbors
    20 = max # of special neighbors
  special bonds CPU = 0.000 seconds
  read_data CPU = 0.107 seconds




# simulation
fix                 fxnpt all npt temp 300.0 300.0 $(200.0*dt) tri 1.0 1.0 $(800.0*dt)
fix                 fxnpt all npt temp 300.0 300.0 200 tri 1.0 1.0 $(800.0*dt)
fix                 fxnpt all npt temp 300.0 300.0 200 tri 1.0 1.0 800
variable            Nevery equal 2500
thermo              ${Nevery}
thermo              2500
thermo_style        custom step cpu dt time temp press pe ke etotal density xlo ylo zlo cella cellb cellc cellalpha cellbeta cellgamma
thermo_modify       flush yes
minimize            1.0e-10 1.0e-10 10000 100000
Generated 28 of 28 mixed pair_coeff terms from geometric mixing rule
Neighbor list info ...
  update: every = 1 steps, delay = 0 steps, check = yes
  max neighbors/atom: 2000, page size: 100000
  master list distance cutoff = 14.5
  ghost atom cutoff = 14.5
  binsize = 7.25, bins = 4 5 5
  1 neighbor lists, perpetual/occasional/extra = 1 0 0
  (1) pair lj/cut, perpetual
      attributes: half, newton on
      pair build: half/bin/newton/tri
      stencil: half/bin/3d/tri
      bin: standard
WARNING: Inconsistent image flags (src/src/domain.cpp:1051)
Per MPI rank memory allocation (min/avg/max) = 17.51 | 17.51 | 17.51 Mbytes
   Step          CPU             Dt            Time           Temp          Press          PotEng         KinEng         TotEng        Density          Xlo            Ylo            Zlo           Cella          Cellb          Cellc        CellAlpha       CellBeta      CellGamma   
         0   0              1              0              0              12284.518      5962.9532      0              5962.9532      0.39326824     0              0              0              28.118902      29.988116      29.988123      85.561075      89.939578      90.053085    
        27   9.2003817      1              27             0              12284.491      5461.2121      0              5461.2121      0.39326824     0              0              0              28.118902      29.988116      29.988123      85.561075      89.939578      90.053085    
Loop time of 9.20043 on 1 procs for 27 steps with 528 atoms

6.8% CPU use with 1 MPI tasks x 1 OpenMP threads

Minimization stats:
  Stopping criterion = energy tolerance
  Energy initial, next-to-last, final = 
       5962.9532324193   5461.21208545508   5461.21208508626
  Force two-norm initial, final = 11418196 129182.37
  Force max component initial, final = 4417377.5 33769.916
  Final line search alpha, max atom move = 9.0368877e-11 3.0517494e-06
  Iterations, force evaluations = 27 689

MPI task timing breakdown:
Section |  min time  |  avg time  |  max time  |%varavg| %total
---------------------------------------------------------------
Pair    | 7.8915     | 7.8915     | 7.8915     |   0.0 | 85.77
Bond    | 1.2981     | 1.2981     | 1.2981     |   0.0 | 14.11
Neigh   | 0          | 0          | 0          |   0.0 |  0.00
Comm    | 0.0072708  | 0.0072708  | 0.0072708  |   0.0 |  0.08
Output  | 0          | 0          | 0          |   0.0 |  0.00
Modify  | 0          | 0          | 0          |   0.0 |  0.00
Other   |            | 0.00349    |            |       |  0.04

Nlocal:            528 ave         528 max         528 min
Histogram: 1 0 0 0 0 0 0 0 0 0
Nghost:           3220 ave        3220 max        3220 min
Histogram: 1 0 0 0 0 0 0 0 0 0
Neighs:          59120 ave       59120 max       59120 min
Histogram: 1 0 0 0 0 0 0 0 0 0

Total # of neighbors = 59120
Ave neighs/atom = 111.9697
Ave special neighs/atom = 12.060606
Neighbor list builds = 0
Dangerous builds = 0
reset_timestep      0
dump                trajectAll all custom ${Nevery} dump.lammpstrj.all id type element x y z q
dump                trajectAll all custom 2500 dump.lammpstrj.all id type element x y z q
dump_modify         trajectAll element C H N O O S Zn Zn
timestep            0.5
run                 10000
Generated 28 of 28 mixed pair_coeff terms from geometric mixing rule
WARNING: Inconsistent image flags (src/src/domain.cpp:1051)
Per MPI rank memory allocation (min/avg/max) = 16.39 | 16.39 | 16.39 Mbytes
   Step          CPU             Dt            Time           Temp          Press          PotEng         KinEng         TotEng        Density          Xlo            Ylo            Zlo           Cella          Cellb          Cellc        CellAlpha       CellBeta      CellGamma   
         0   0              0.5            0              0              12284.491      5461.2121      0              5461.2121      0.39326824     0              0              0              28.118902      29.988116      29.988123      85.561075      89.939578      90.053085    
