Created by Ryther's code on 2025-07-29 22:46:51.575978, modified by xyan11@uic.edu. 

    368 atoms
    432 bonds
    848 angles
    728 dihedrals
    128 impropers

    9 atom types
    16 bond types
    30 angle types
    5 dihedral types
    2 improper types

0.00000000 22.63732972 xlo xhi
0.00000000 20.59058108 ylo yhi
0.00000000 21.29481648 zlo zhi
-0.75870256 0.31591436 1.66626046 xy xz yz 

Masses 

    1    12.0107  #   C
    2    12.0107  #   C
    3    12.0107  #   C
    4    1.00794  #   H
    5    14.0067  #   N
    6    15.9994  #   O
    7    15.9994  #   O
    8      65.38  #  Zn
    9      65.38  #  Zn

Pair Coeffs

    1       0.10500      3.43085  #  C_1 C_1
    2       0.10500      3.43085  #  C_3 C_3
    3       0.10500      3.43085  #  C_R C_R
    4       0.04400      2.57113  #  H_ H_
    5       0.06900      3.26069  #  N_2 N_2
    6       0.06000      3.11815  #  O_2_M O_2_M
    7       0.06000      3.11815  #  O_3_M O_3_M
    8       0.12400      2.46155  #  Zn4+2 Zn4+2
    9       0.06000      2.58361  #  Zn6f3 Zn6f3

Bond Coeffs

    1      54.94924      2.40433  #  O_2_M Zn6f3 bond order=0.5
    2      55.07699      2.48452  #  N_2 Zn6f3 bond order=0.5
    3     104.44141      2.12294  #  O_2_M Zn4+2 bond order=0.5
    4     100.76218      2.14847  #  O_3_M Zn4+2 bond order=0.5
    5      48.90184      1.84943  #  H_ Zn4+2 bond order=0.5
    6     103.61325      2.20128  #  N_2 Zn4+2 bond order=0.5
    7     331.06939      1.10940  #  C_3 H_ bond order=1.0
    8     357.44038      1.08142  #  C_R H_ bond order=1.0
    9     559.99521      0.99025  #  H_ O_3_M bond order=1.0
    10    978.49444      1.18180  #  C_1 N_2 bond order=3.0
    11    387.66747      1.46300  #  C_1 C_3 bond order=1.0
    12    349.79590      1.51400  #  C_3 C_3 bond order=1.0
    13    391.66951      1.45800  #  C_R C_R bond order=1.0
    14    462.65505      1.37926  #  C_R C_R bond order=1.5
    15    714.55744      1.26901  #  C_R O_2_M bond order=1.5
    16    678.02790      1.29140  #  C_R O_3_M bond order=1.5

Angle Coeffs

    1  cosine/periodic         67.02484            1            4  #  O_2_M Zn6f3 O_2_M
    2  cosine/periodic         70.47472            1            4  #  N_2 Zn6f3 O_2_M
    3  cosine/periodic         95.61832            1            4  #  O_2_M Zn4+2 O_3_M
    4  cosine/periodic         97.36576            1            4  #  O_2_M Zn4+2 O_2_M
    5  cosine/periodic         36.20045            1            4  #  H_ Zn4+2 O_2_M
    6  cosine/periodic        101.82219            1            4  #  N_2 Zn4+2 O_2_M
    7  cosine/periodic         35.40556            1            4  #  H_ Zn4+2 O_3_M
    8  cosine/periodic        100.10309            1            4  #  N_2 Zn4+2 O_3_M
    9  cosine/periodic         37.39156            1            4  #  H_ Zn4+2 N_2
    10 cosine/periodic         14.11273            1            4  #  H_ Zn4+2 H_
    11 cosine/periodic         43.63912            1            1  #  O_3_M H_ Zn4+2
    12 cosine/periodic         87.29919            1            1  #  C_3 C_1 N_2
    13 fourier                117.31542      0.34375      0.37500      0.28125  #  C_3 C_3 H_
    14 fourier                 75.49653      0.34375      0.37500      0.28125  #  H_ C_3 H_
    15 fourier                125.57576      0.34375      0.37500      0.28125  #  C_1 C_3 H_
    16 fourier                225.28003      0.34375      0.37500      0.28125  #  C_1 C_3 C_3
    17 cosine/periodic        102.18328           -1            3  #  C_R C_R C_R
    18 cosine/periodic        111.29751           -1            3  #  C_R C_R C_R
    19 cosine/periodic         57.28902           -1            3  #  C_R C_R H_
    20 cosine/periodic        137.71425           -1            3  #  C_R C_R O_2_M
    21 cosine/periodic        206.77843           -1            3  #  O_2_M C_R O_2_M
    22 cosine/periodic        134.57449           -1            3  #  C_R C_R O_3_M
    23 cosine/periodic        201.38050           -1            3  #  O_2_M C_R O_3_M
    24 fourier                 48.37175      0.36401      0.41847      0.28800  #  C_1 N_2 Zn6f3
    25 fourier                 85.70408      0.36401      0.41847      0.28800  #  C_1 N_2 Zn4+2
    26 cosine/periodic         37.72922           -1            3  #  C_R O_2_M Zn4+2
    27 fourier                 41.31289      0.30023      0.26733      0.26675  #  H_ O_3_M Zn4+2
    28 fourier                 99.02913      0.30023      0.26733      0.26675  #  C_R O_3_M Zn4+2
    29 fourier                203.65891      0.30023      0.26733      0.26675  #  C_R O_3_M H_
    30 cosine/periodic         21.77718           -1            3  #  C_R O_2_M Zn6f3

Dihedral Coeffs

    1       0.11772            1            3  #  X C_3 C_3 X bond order=1.0
    2       1.25000           -1            2  #  X C_R C_R X bond order=1.0
    3       3.36856           -1            2  #  X C_R C_R X bond order=1.5
    4       6.73711           -1            2  #  X C_R O_2_M X bond order=1.5
    5       0.31957           -1            2  #  X C_R O_3_M X bond order=1.5

Improper Coeffs

    1       2.00000      1.00000     -1.00000      0.00000            1  #  C_R X X X O_2 present=False
    2      16.66667      1.00000     -1.00000      0.00000            1  #  C_R X X X O_2 present=True

Atoms # a, b, c, alpha, beta, gamma: 22.6373297190, 20.6045543238, 21.3622432009, 85.5607048212, 89.1526536215, 92.1102268639 $$$atoms$$$

    1 1     9      0.00000      3.19887      5.38664      6.32908   #   Zn1   0.14512337   0.23755556   0.29721235
    2 1     8      0.00000      6.12681      5.49457      6.27716   #   Zn2   0.27468120   0.24299466   0.29477404
    3 1     4      0.00000     10.48054      4.90856      8.76261   #    H1   0.46410714   0.20508937   0.41149010
    4 1     4      0.00000      0.15390      6.35742      9.15488   #    H2   0.00998117   0.27396389   0.42991125
    5 1     4      0.00000     10.16379      7.69337      7.42457   #    H3   0.45569511   0.34542074   0.34865604
    6 1     4      0.00000      9.17177      7.09426      8.80085   #    H4   0.40982005   0.31109439   0.41328589
    7 1     4      0.00000      2.87940     10.52953      7.08890   #    H6   0.13878738   0.48443717   0.33289310
    8 1     4      0.00000      6.31644      8.51913      5.43317   #    H8   0.28864162   0.39309215   0.25514038
    9 1     4      0.00000      7.70609      0.39811      4.89631   #    H9   0.33723084   0.00072790   0.22992951
   10 1     4      0.00000      6.53852      2.49214      5.43317   #   H10   0.28864163   0.10038598   0.25514031
   11 1     4      0.00000      5.59055      6.16602      5.49289   #   H11   0.25269865   0.27858453   0.25794486
   12 1     4      0.00000      2.94639      3.73819      2.32853   #   H12   0.13441839   0.17269957   0.10934730
   13 1     4      0.00000      3.06825      4.38094     10.54296   #   H13   0.13441838   0.17269960   0.49509528
   14 1     4      0.00000      6.37875      7.14251     10.27819   #   H14   0.28536123   0.30782374   0.48266172
   15 1     4      0.00000      6.25687      6.49969      2.06291   #   H15   0.28536120   0.30782372   0.09687390
   16 1     4      0.00000      5.61236      6.28105      6.96299   #   H16   0.25269884   0.27858431   0.32698034
   17 1     1      0.00000      0.48316      5.55259      7.24023   #    C1   0.02471432   0.24215267   0.33999955
   18 1     2      0.00000     10.89065      5.85663      8.35255   #    C2   0.48408797   0.25269136   0.39223403
   19 1     2      0.00000      9.75368      6.78080      7.90851   #    C3   0.43571426   0.29926201   0.37138181
   20 1     1      0.00000      8.84252      6.10237      6.97607   #    C4   0.39508926   0.26985704   0.32759479
   21 1     3      0.00000      4.80754      1.51535      6.30312   #    C5   0.20990512   0.04964133   0.29599328
   22 1     3      0.00000      3.85016     10.56530      6.61030   #    C6   0.18210339   0.48799306   0.31041838
   23 1     3      0.00000      4.51827      9.36588      6.30312   #    C7   0.20990510   0.43090944   0.29599330
   24 1     3      0.00000      5.77777      9.42497      5.68195   #    C8   0.26612560   0.43613994   0.26682293
   25 1     3      0.00000      6.35638     10.65764      5.37471   #    C9   0.29393269   0.49717339   0.25239503
   26 1     3      0.00000      6.06797      1.54910      5.68194   #   C10   0.26612560   0.05364141   0.26682289
   27 1     3      0.00000      4.60481      5.13423      2.38759   #   C11   0.20990513   0.24027538   0.11212067
   28 1     3      0.00000      3.66617      4.30437      1.75054   #   C12   0.16758831   0.20239332   0.08220515
   29 1     3      0.00000      3.64549      4.19533      0.35699   #   C13   0.16758828   0.20239336   0.01676408
   30 1     3      0.00000      4.72099      5.74699     10.21866   #   C14   0.20990508   0.24027541   0.47986589
   31 1     3      0.00000      5.50091      5.74308      0.20830   #   C15   0.25218698   0.27812608   0.00978178
   32 1     3      0.00000      5.52159      5.85213      1.60196   #   C16   0.25218697   0.27812607   0.07522793
   33 1     3      0.00000      4.70096      5.57791      8.73842   #   C17   0.20990379   0.23768915   0.41035420
   34 1     3      0.00000      4.62475      5.30332      3.86782   #   C18   0.20990220   0.24286195   0.18163222
   35 1     3      0.00000      4.57209      7.87780      6.24999   #   C19   0.20990207   0.35884153   0.29349820
   36 1     3      0.00000      4.75362      3.00341      6.35625   #   C20   0.20990387   0.12170879   0.29848827
   37 1     5      0.00000      1.20062      5.31298      6.36441   #    N1   0.05670385   0.23384401   0.29887138
   38 1     5      0.00000      8.12505      5.56833      6.24172   #    N2   0.36310071   0.24671152   0.29310990
   39 1     6      0.00000      5.74258      5.40096      4.34490   #    O1   0.25906774   0.24579131   0.20403561
   40 1     6      0.00000      5.80538      5.56217      8.22193   #    O2   0.25906965   0.23888745   0.38610002
   41 1     7      0.00000      5.70129      7.41936      6.21251   #    O3   0.25906760   0.33671950   0.29173798
   42 1     6      0.00000      5.84666      3.54378      6.35432   #    O4   0.25906974   0.14795926   0.29839760
   43 1     6      0.00000      3.47902      7.33744      6.25192   #    O5   0.16073479   0.33259096   0.29358879
   44 1     6      0.00000      3.58310      5.48027      8.26134   #    O6   0.16073684   0.23475969   0.38795080
   45 1     6      0.00000      3.52030      5.31905      4.38430   #    O7   0.16073493   0.24166352   0.20588564
   46 1     6      0.00000      3.62438      3.46186      6.39372   #    O8   0.16073693   0.14383147   0.30024768
   47 1     9      0.00000      3.35682      6.21977     16.97649   #   Zn1   0.14512337   0.23755556   0.79721235
   48 1     8      0.00000      6.28477      6.32770     16.92457   #   Zn2   0.27468120   0.24299466   0.79477404
   49 1     4      0.00000     10.63850      5.74169     19.41001   #    H1   0.46410714   0.20508937   0.91149010
   50 1     4      0.00000      0.31186      7.19055     19.80229   #    H2   0.00998117   0.27396389   0.92991125
   51 1     4      0.00000     10.32175      8.52650     18.07197   #    H3   0.45569511   0.34542074   0.84865604
   52 1     4      0.00000      9.32972      7.92739     19.44826   #    H4   0.40982005   0.31109439   0.91328589
   53 1     4      0.00000      3.03735     11.36266     17.73631   #    H6   0.13878738   0.48443717   0.83289310
   54 1     4      0.00000      6.47440      9.35226     16.08058   #    H8   0.28864162   0.39309215   0.75514038
   55 1     4      0.00000      7.86405      1.23124     15.54372   #    H9   0.33723084   0.00072790   0.72992951
   56 1     4      0.00000      6.69647      3.32527     16.08057   #   H10   0.28864163   0.10038598   0.75514031
   57 1     4      0.00000      5.74851      6.99915     16.14030   #   H11   0.25269865   0.27858453   0.75794486
   58 1     4      0.00000      3.10435      4.57132     12.97594   #   H12   0.13441839   0.17269957   0.60934730
   59 1     4      0.00000      3.22621      5.21407     21.19037   #   H13   0.13441838   0.17269960   0.99509528
   60 1     4      0.00000      6.53671      7.97564     20.92560   #   H14   0.28536123   0.30782374   0.98266172
   61 1     4      0.00000      6.41483      7.33282     12.71032   #   H15   0.28536120   0.30782372   0.59687390
   62 1     4      0.00000      5.77032      7.11418     17.61039   #   H16   0.25269884   0.27858431   0.82698034
   63 1     1      0.00000      0.64111      6.38572     17.88764   #    C1   0.02471432   0.24215267   0.83999955
   64 1     2      0.00000     11.04861      6.68976     18.99996   #    C2   0.48408797   0.25269136   0.89223403
   65 1     2      0.00000      9.91164      7.61393     18.55592   #    C3   0.43571426   0.29926201   0.87138181
   66 1     1      0.00000      9.00047      6.93550     17.62348   #    C4   0.39508926   0.26985704   0.82759479
   67 1     3      0.00000      4.96549      2.34848     16.95053   #    C5   0.20990512   0.04964133   0.79599328
   68 1     3      0.00000      4.00812     11.39843     17.25771   #    C6   0.18210339   0.48799306   0.81041838
   69 1     3      0.00000      4.67622     10.19901     16.95053   #    C7   0.20990510   0.43090944   0.79599330
   70 1     3      0.00000      5.93572     10.25810     16.32935   #    C8   0.26612560   0.43613994   0.76682293
   71 1     3      0.00000      6.51434     11.49078     16.02211   #    C9   0.29393269   0.49717339   0.75239503
   72 1     3      0.00000      6.22593      2.38223     16.32935   #   C10   0.26612560   0.05364141   0.76682289
   73 1     3      0.00000      4.76277      5.96736     13.03500   #   C11   0.20990513   0.24027538   0.61212067
   74 1     3      0.00000      3.82412      5.13750     12.39795   #   C12   0.16758831   0.20239332   0.58220515
   75 1     3      0.00000      3.80345      5.02846     11.00440   #   C13   0.16758828   0.20239336   0.51676408
   76 1     3      0.00000      4.87895      6.58012     20.86606   #   C14   0.20990508   0.24027541   0.97986589
   77 1     3      0.00000      5.65887      6.57621     10.85571   #   C15   0.25218698   0.27812608   0.50978178
   78 1     3      0.00000      5.67955      6.68526     12.24937   #   C16   0.25218697   0.27812607   0.57522793
   79 1     3      0.00000      4.85892      6.41104     19.38583   #   C17   0.20990379   0.23768915   0.91035420
   80 1     3      0.00000      4.78270      6.13645     14.51523   #   C18   0.20990220   0.24286195   0.68163222
   81 1     3      0.00000      4.73005      8.71093     16.89740   #   C19   0.20990207   0.35884153   0.79349820
   82 1     3      0.00000      4.91158      3.83654     17.00366   #   C20   0.20990387   0.12170879   0.79848827
   83 1     5      0.00000      1.35858      6.14611     17.01182   #    N1   0.05670385   0.23384401   0.79887138
   84 1     5      0.00000      8.28300      6.40146     16.88913   #    N2   0.36310071   0.24671152   0.79310990
   85 1     6      0.00000      5.90053      6.23409     14.99231   #    O1   0.25906774   0.24579131   0.70403561
   86 1     6      0.00000      5.96333      6.39530     18.86934   #    O2   0.25906965   0.23888745   0.88610002
   87 1     7      0.00000      5.85925      8.25249     16.85991   #    O3   0.25906760   0.33671950   0.79173798
   88 1     6      0.00000      6.00462      4.37691     17.00173   #    O4   0.25906974   0.14795926   0.79839760
   89 1     6      0.00000      3.63697      8.17057     16.89933   #    O5   0.16073479   0.33259096   0.79358879
   90 1     6      0.00000      3.74106      6.31340     18.90875   #    O6   0.16073684   0.23475969   0.88795080
   91 1     6      0.00000      3.67826      6.15218     15.03171   #    O7   0.16073493   0.24166352   0.70588564
   92 1     6      0.00000      3.78234      4.29499     17.04113   #    O8   0.16073693   0.14383147   0.80024768
   93 1     9      0.00000      2.81951     15.68193      6.32908   #   Zn1   0.14512337   0.73755556   0.29721235
   94 1     8      0.00000      5.74746     15.78986      6.27716   #   Zn2   0.27468120   0.74299466   0.29477404
   95 1     4      0.00000     10.10119     15.20385      8.76261   #    H1   0.46410714   0.70508937   0.41149010
   96 1     4      0.00000     -0.22545     16.65271      9.15488   #    H2   0.00998117   0.77396389   0.42991125
   97 1     4      0.00000      9.78444     17.98866      7.42457   #    H3   0.45569511   0.84542074   0.34865604
   98 1     4      0.00000      8.79242     17.38955      8.80085   #    H4   0.40982005   0.81109439   0.41328589
   99 1     4      0.00000      2.50005     20.82482      7.08890   #    H6   0.13878738   0.98443717   0.33289310
  100 1     4      0.00000      5.93709     18.81442      5.43317   #    H8   0.28864162   0.89309215   0.25514038
  101 1     4      0.00000      7.32674     10.69340      4.89631   #    H9   0.33723084   0.50072790   0.22992951
  102 1     4      0.00000      6.15916     12.78743      5.43317   #   H10   0.28864163   0.60038598   0.25514031
  103 1     4      0.00000      5.21120     16.46131      5.49289   #   H11   0.25269865   0.77858453   0.25794486
  104 1     4      0.00000      2.56704     14.03348      2.32853   #   H12   0.13441839   0.67269957   0.10934730
  105 1     4      0.00000      2.68890     14.67623     10.54296   #   H13   0.13441838   0.67269960   0.49509528
  106 1     4      0.00000      5.99940     17.43780     10.27819   #   H14   0.28536123   0.80782374   0.48266172
  107 1     4      0.00000      5.87752     16.79498      2.06291   #   H15   0.28536120   0.80782372   0.09687390
  108 1     4      0.00000      5.23301     16.57634      6.96299   #   H16   0.25269884   0.77858431   0.32698034
  109 1     1      0.00000      0.10380     15.84788      7.24023   #    C1   0.02471432   0.74215267   0.33999955
  110 1     2      0.00000     10.51130     16.15192      8.35255   #    C2   0.48408797   0.75269136   0.39223403
  111 1     2      0.00000      9.37433     17.07609      7.90851   #    C3   0.43571426   0.79926201   0.37138181
  112 1     1      0.00000      8.46317     16.39766      6.97607   #    C4   0.39508926   0.76985704   0.32759479
  113 1     3      0.00000      4.42819     11.81064      6.30312   #    C5   0.20990512   0.54964133   0.29599328
  114 1     3      0.00000      3.47081     20.86059      6.61030   #    C6   0.18210339   0.98799306   0.31041838
  115 1     3      0.00000      4.13892     19.66117      6.30312   #    C7   0.20990510   0.93090944   0.29599330
  116 1     3      0.00000      5.39841     19.72026      5.68195   #    C8   0.26612560   0.93613994   0.26682293
  117 1     3      0.00000      5.97703     20.95294      5.37471   #    C9   0.29393269   0.99717339   0.25239503
  118 1     3      0.00000      5.68862     11.84439      5.68194   #   C10   0.26612560   0.55364141   0.26682289
  119 1     3      0.00000      4.22546     15.42952      2.38759   #   C11   0.20990513   0.74027538   0.11212067
  120 1     3      0.00000      3.28681     14.59966      1.75054   #   C12   0.16758831   0.70239332   0.08220515
  121 1     3      0.00000      3.26614     14.49062      0.35699   #   C13   0.16758828   0.70239336   0.01676408
  122 1     3      0.00000      4.34164     16.04228     10.21866   #   C14   0.20990508   0.74027541   0.47986589
  123 1     3      0.00000      5.12156     16.03837      0.20830   #   C15   0.25218698   0.77812608   0.00978178
  124 1     3      0.00000      5.14224     16.14742      1.60196   #   C16   0.25218697   0.77812607   0.07522793
  125 1     3      0.00000      4.32161     15.87321      8.73842   #   C17   0.20990379   0.73768915   0.41035420
  126 1     3      0.00000      4.24539     15.59861      3.86782   #   C18   0.20990220   0.74286195   0.18163222
  127 1     3      0.00000      4.19274     18.17309      6.24999   #   C19   0.20990207   0.85884153   0.29349820
  128 1     3      0.00000      4.37427     13.29870      6.35625   #   C20   0.20990387   0.62170879   0.29848827
  129 1     5      0.00000      0.82127     15.60827      6.36441   #    N1   0.05670385   0.73384401   0.29887138
  130 1     5      0.00000      7.74570     15.86362      6.24172   #    N2   0.36310071   0.74671152   0.29310990
  131 1     6      0.00000      5.36323     15.69625      4.34490   #    O1   0.25906774   0.74579131   0.20403561
  132 1     6      0.00000      5.42602     15.85747      8.22193   #    O2   0.25906965   0.73888745   0.38610002
  133 1     7      0.00000      5.32194     17.71465      6.21251   #    O3   0.25906760   0.83671950   0.29173798
  134 1     6      0.00000      5.46731     13.83907      6.35432   #    O4   0.25906974   0.64795926   0.29839760
  135 1     6      0.00000      3.09967     17.63273      6.25192   #    O5   0.16073479   0.83259096   0.29358879
  136 1     6      0.00000      3.20375     15.77556      8.26134   #    O6   0.16073684   0.73475969   0.38795080
  137 1     6      0.00000      3.14095     15.61434      4.38430   #    O7   0.16073493   0.74166352   0.20588564
  138 1     6      0.00000      3.24503     13.75715      6.39372   #    O8   0.16073693   0.64383147   0.30024768
  139 1     9      0.00000      2.97747     16.51506     16.97649   #   Zn1   0.14512337   0.73755556   0.79721235
  140 1     8      0.00000      5.90542     16.62299     16.92457   #   Zn2   0.27468120   0.74299466   0.79477404
  141 1     4      0.00000     10.25915     16.03698     19.41001   #    H1   0.46410714   0.70508937   0.91149010
  142 1     4      0.00000     -0.06749     17.48584     19.80229   #    H2   0.00998117   0.77396389   0.92991125
  143 1     4      0.00000      9.94240     18.82179     18.07197   #    H3   0.45569511   0.84542074   0.84865604
  144 1     4      0.00000      8.95037     18.22268     19.44826   #    H4   0.40982005   0.81109439   0.91328589
  145 1     4      0.00000      2.65800     21.65795     17.73631   #    H6   0.13878738   0.98443717   0.83289310
  146 1     4      0.00000      6.09504     19.64755     16.08058   #    H8   0.28864162   0.89309215   0.75514038
  147 1     4      0.00000      7.48470     11.52653     15.54372   #    H9   0.33723084   0.50072790   0.72992951
  148 1     4      0.00000      6.31712     13.62056     16.08057   #   H10   0.28864163   0.60038598   0.75514031
  149 1     4      0.00000      5.36915     17.29444     16.14030   #   H11   0.25269865   0.77858453   0.75794486
  150 1     4      0.00000      2.72500     14.86661     12.97594   #   H12   0.13441839   0.67269957   0.60934730
  151 1     4      0.00000      2.84686     15.50936     21.19037   #   H13   0.13441838   0.67269960   0.99509528
  152 1     4      0.00000      6.15736     18.27093     20.92560   #   H14   0.28536123   0.80782374   0.98266172
  153 1     4      0.00000      6.03548     17.62811     12.71032   #   H15   0.28536120   0.80782372   0.59687390
  154 1     4      0.00000      5.39097     17.40947     17.61039   #   H16   0.25269884   0.77858431   0.82698034
  155 1     1      0.00000      0.26176     16.68101     17.88764   #    C1   0.02471432   0.74215267   0.83999955
  156 1     2      0.00000     10.66926     16.98505     18.99996   #    C2   0.48408797   0.75269136   0.89223403
  157 1     2      0.00000      9.53229     17.90922     18.55592   #    C3   0.43571426   0.79926201   0.87138181
  158 1     1      0.00000      8.62112     17.23079     17.62348   #    C4   0.39508926   0.76985704   0.82759479
  159 1     3      0.00000      4.58614     12.64377     16.95053   #    C5   0.20990512   0.54964133   0.79599328
  160 1     3      0.00000      3.62876     21.69372     17.25771   #    C6   0.18210339   0.98799306   0.81041838
  161 1     3      0.00000      4.29687     20.49430     16.95053   #    C7   0.20990510   0.93090944   0.79599330
  162 1     3      0.00000      5.55637     20.55339     16.32935   #    C8   0.26612560   0.93613994   0.76682293
  163 1     3      0.00000      6.13499     21.78607     16.02211   #    C9   0.29393269   0.99717339   0.75239503
  164 1     3      0.00000      5.84657     12.67753     16.32935   #   C10   0.26612560   0.55364141   0.76682289
  165 1     3      0.00000      4.38342     16.26265     13.03500   #   C11   0.20990513   0.74027538   0.61212067
  166 1     3      0.00000      3.44477     15.43279     12.39795   #   C12   0.16758831   0.70239332   0.58220515
  167 1     3      0.00000      3.42410     15.32375     11.00440   #   C13   0.16758828   0.70239336   0.51676408
  168 1     3      0.00000      4.49960     16.87541     20.86606   #   C14   0.20990508   0.74027541   0.97986589
  169 1     3      0.00000      5.27952     16.87150     10.85571   #   C15   0.25218698   0.77812608   0.50978178
  170 1     3      0.00000      5.30020     16.98055     12.24937   #   C16   0.25218697   0.77812607   0.57522793
  171 1     3      0.00000      4.47957     16.70634     19.38583   #   C17   0.20990379   0.73768915   0.91035420
  172 1     3      0.00000      4.40335     16.43174     14.51523   #   C18   0.20990220   0.74286195   0.68163222
  173 1     3      0.00000      4.35069     19.00622     16.89740   #   C19   0.20990207   0.85884153   0.79349820
  174 1     3      0.00000      4.53223     14.13183     17.00366   #   C20   0.20990387   0.62170879   0.79848827
  175 1     5      0.00000      0.97923     16.44140     17.01182   #    N1   0.05670385   0.73384401   0.79887138
  176 1     5      0.00000      7.90365     16.69675     16.88913   #    N2   0.36310071   0.74671152   0.79310990
  177 1     6      0.00000      5.52118     16.52938     14.99231   #    O1   0.25906774   0.74579131   0.70403561
  178 1     6      0.00000      5.58398     16.69060     18.86934   #    O2   0.25906965   0.73888745   0.88610002
  179 1     7      0.00000      5.47990     18.54778     16.85991   #    O3   0.25906760   0.83671950   0.79173798
  180 1     6      0.00000      5.62526     14.67220     17.00173   #    O4   0.25906974   0.64795926   0.79839760
  181 1     6      0.00000      3.25762     18.46586     16.89933   #    O5   0.16073479   0.83259096   0.79358879
  182 1     6      0.00000      3.36171     16.60869     18.90875   #    O6   0.16073684   0.73475969   0.88795080
  183 1     6      0.00000      3.29891     16.44747     15.03171   #    O7   0.16073493   0.74166352   0.70588564
  184 1     6      0.00000      3.40299     14.59029     17.04113   #    O8   0.16073693   0.64383147   0.80024768
  185 1     9      0.00000     14.51753      5.38664      6.32908   #   Zn1   0.64512337   0.23755556   0.29721235
  186 1     8      0.00000     17.44548      5.49457      6.27716   #   Zn2   0.77468120   0.24299466   0.29477404
  187 1     4      0.00000     21.79920      4.90856      8.76261   #    H1   0.96410714   0.20508937   0.41149010
  188 1     4      0.00000     11.47257      6.35742      9.15488   #    H2   0.50998117   0.27396389   0.42991125
  189 1     4      0.00000     21.48246      7.69337      7.42457   #    H3   0.95569511   0.34542074   0.34865604
  190 1     4      0.00000     20.49043      7.09426      8.80085   #    H4   0.90982005   0.31109439   0.41328589
  191 1     4      0.00000     14.19806     10.52953      7.08890   #    H6   0.63878738   0.48443717   0.33289310
  192 1     4      0.00000     17.63510      8.51913      5.43317   #    H8   0.78864162   0.39309215   0.25514038
  193 1     4      0.00000     19.02476      0.39811      4.89631   #    H9   0.83723084   0.00072790   0.22992951
  194 1     4      0.00000     17.85718      2.49214      5.43317   #   H10   0.78864163   0.10038598   0.25514031
  195 1     4      0.00000     16.90921      6.16602      5.49289   #   H11   0.75269865   0.27858453   0.25794486
  196 1     4      0.00000     14.26506      3.73819      2.32853   #   H12   0.63441839   0.17269957   0.10934730
  197 1     4      0.00000     14.38692      4.38094     10.54296   #   H13   0.63441838   0.17269960   0.49509528
  198 1     4      0.00000     17.69741      7.14251     10.27819   #   H14   0.78536123   0.30782374   0.48266172
  199 1     4      0.00000     17.57554      6.49969      2.06291   #   H15   0.78536120   0.30782372   0.09687390
  200 1     4      0.00000     16.93103      6.28105      6.96299   #   H16   0.75269884   0.27858431   0.32698034
  201 1     1      0.00000     11.80182      5.55259      7.24023   #    C1   0.52471432   0.24215267   0.33999955
  202 1     2      0.00000     22.20932      5.85663      8.35255   #    C2   0.98408797   0.25269136   0.39223403
  203 1     2      0.00000     21.07235      6.78080      7.90851   #    C3   0.93571426   0.29926201   0.37138181
  204 1     1      0.00000     20.16118      6.10237      6.97607   #    C4   0.89508926   0.26985704   0.32759479
  205 1     3      0.00000     16.12620      1.51535      6.30312   #    C5   0.70990512   0.04964133   0.29599328
  206 1     3      0.00000     15.16882     10.56530      6.61030   #    C6   0.68210339   0.48799306   0.31041838
  207 1     3      0.00000     15.83693      9.36588      6.30312   #    C7   0.70990510   0.43090944   0.29599330
  208 1     3      0.00000     17.09643      9.42497      5.68195   #    C8   0.76612560   0.43613994   0.26682293
  209 1     3      0.00000     17.67504     10.65764      5.37471   #    C9   0.79393269   0.49717339   0.25239503
  210 1     3      0.00000     17.38663      1.54910      5.68194   #   C10   0.76612560   0.05364141   0.26682289
  211 1     3      0.00000     15.92348      5.13423      2.38759   #   C11   0.70990513   0.24027538   0.11212067
  212 1     3      0.00000     14.98483      4.30437      1.75054   #   C12   0.66758831   0.20239332   0.08220515
  213 1     3      0.00000     14.96416      4.19533      0.35699   #   C13   0.66758828   0.20239336   0.01676408