Created by Ryther's code on 2025-07-29 22:46:57.173932, modified by xyan11@uic.edu. 

    592 atoms
    720 bonds
    1600 angles
    1248 dihedrals
    272 impropers

    6 atom types
    10 bond types
    19 angle types
    3 dihedral types
    2 improper types

0.00000000 21.96725534 xlo xhi
0.00000000 30.98060595 ylo yhi
0.00000000 30.88946333 zlo zhi
0.32276773 0.23433414 2.38509629 xy xz yz 

Masses 

    1    12.0107  #   C
    2    12.0107  #   C
    3    1.00794  #   H
    4    14.0067  #   N
    5    15.9994  #   O
    6      65.38  #  Zn

Pair Coeffs

    1       0.10500      3.43085  #  C_1 C_1
    2       0.10500      3.43085  #  C_R C_R
    3       0.04400      2.57113  #  H_ H_
    4       0.06900      3.26069  #  N_2 N_2
    5       0.06000      3.11815  #  O_2_M O_2_M
    6       0.12400      2.46155  #  Zn4+2 Zn4+2

Bond Coeffs

    1     103.61325      2.20128  #  N_2 Zn4+2 bond order=0.5
    2      48.90184      1.84943  #  H_ Zn4+2 bond order=0.5
    3     104.44141      2.12294  #  O_2_M Zn4+2 bond order=0.5
    4     357.44038      1.08142  #  C_R H_ bond order=1.0
    5      97.41657      1.20000  #  H_ H_ bond order=1.0
    6     978.49444      1.18180  #  C_1 N_2 bond order=3.0
    7     410.80587      1.43500  #  C_1 C_R bond order=1.0
    8     462.65505      1.37926  #  C_R C_R bond order=1.5
    9     391.66951      1.45800  #  C_R C_R bond order=1.0
    10    714.55744      1.26901  #  C_R O_2_M bond order=1.5

Angle Coeffs

    1  cosine/periodic         37.39156            1            4  #  H_ Zn4+2 N_2
    2  cosine/periodic        101.82219            1            4  #  N_2 Zn4+2 O_2_M
    3  cosine/periodic         36.20045            1            4  #  H_ Zn4+2 O_2_M
    4  cosine/periodic         14.11273            1            4  #  H_ Zn4+2 H_
    5  cosine/periodic         97.36576            1            4  #  O_2_M Zn4+2 O_2_M
    6  cosine/periodic         38.06886            1            1  #  C_R H_ H_
    7  cosine/periodic         11.23300            1            1  #  Zn4+2 H_ Zn4+2
    8  cosine/periodic         10.90893            1            1  #  H_ H_ Zn4+2
    9  cosine/periodic         90.13161            1            1  #  C_R C_1 N_2
    10 cosine/periodic        104.76060           -1            3  #  C_1 C_R C_R
    11 cosine/periodic        111.29751           -1            3  #  C_R C_R C_R
    12 cosine/periodic         57.28902           -1            3  #  C_R C_R H_
    13 cosine/periodic         51.62857           -1            3  #  C_R C_R H_
    14 cosine/periodic        102.18328           -1            3  #  C_R C_R C_R
    15 cosine/periodic         96.47826           -1            3  #  C_1 C_R C_R
    16 cosine/periodic        137.71425           -1            3  #  C_R C_R O_2_M
    17 cosine/periodic        206.77843           -1            3  #  O_2_M C_R O_2_M
    18 fourier                 85.70408      0.36401      0.41847      0.28800  #  C_1 N_2 Zn4+2
    19 cosine/periodic         37.72922           -1            3  #  C_R O_2_M Zn4+2

Dihedral Coeffs

    1       3.36856           -1            2  #  X C_R C_R X bond order=1.5
    2       1.25000           -1            2  #  X C_R C_R X bond order=1.0
    3       6.73711           -1            2  #  X C_R O_2_M X bond order=1.5

Improper Coeffs

    1       2.00000      1.00000     -1.00000      0.00000            1  #  C_R X X X O_2 present=False
    2      16.66667      1.00000     -1.00000      0.00000            1  #  C_R X X X O_2 present=True

Atoms # a, b, c, alpha, beta, gamma: 21.9672553402, 30.9822872640, 30.9822940013, 85.5805679859, 89.5666400503, 89.4030923829 $$$atoms$$$

    1 1     6      0.00000      3.73680     14.01492      0.15425   #   Zn1   0.16341306   0.45199270   0.00499346
    2 1     6      0.00000      6.66719     14.01429      0.15586   #   Zn2   0.29681115   0.45196847   0.00504559
    3 1     3      0.00000      2.21047     12.87263      3.38678   #    H1   0.09347493   0.40706508   0.10964191
    4 1     3      0.00000      1.04086     12.15693      5.41217   #    H2   0.03994574   0.37891555   0.17521100
    5 1     3      0.00000      9.94078     11.72597      6.63191   #    H3   0.44491834   0.36196487   0.21469824
    6 1     3      0.00000      7.48048     11.69917      6.70771   #    H4   0.33290907   0.36091090   0.21715194
    7 1     3      0.00000      6.16044     12.39579      4.73630   #    H5   0.27309626   0.38831012   0.15333064
    8 1     3      0.00000      7.27331     13.12136      2.68304   #    H6   0.32404627   0.41684764   0.08685924
    9 1     3      0.00000      5.25506     13.47763      0.61991   #    H7   0.23263924   0.43348940   0.02006858
   10 1     3      0.00000      5.39210      9.89378      1.37621   #    H8   0.24034360   0.31592403   0.04455274
   11 1     3      0.00000      4.88072     10.50742     13.88219   #    H9   0.21291253   0.30456219   0.44941498
   12 1     3      0.00000      6.27516      7.87919      1.64493   #   H10   0.28141497   0.25022695   0.05325222
   13 1     3      0.00000      6.31755      5.51027      2.18973   #   H11   0.28430024   0.17240447   0.07088915
   14 1     3      0.00000      4.08474      5.85227     14.10990   #   H12   0.17881527   0.15373450   0.45678699
   15 1     3      0.00000      4.04235      8.22119     13.56511   #   H13   0.17593009   0.23155698   0.43915005
   16 1     3      0.00000      5.47919      3.22404      1.87265   #   H14   0.24731794   0.09939922   0.06062420
   17 1     3      0.00000      4.96779      3.83768     14.37863   #   H15   0.21988614   0.08803731   0.46548654
   18 1     3      0.00000      5.26620     15.74414     15.13493   #   H16   0.22759027   0.47047201   0.48997079
   19 1     3      0.00000      5.35236     14.70017     15.10067   #   H17   0.23201786   0.43686010   0.48886148
   20 1     3      0.00000      5.46471     13.66308     11.58690   #   H18   0.23870895   0.41214193   0.37510858
   21 1     3      0.00000      4.81204      1.08343     10.77870   #   H19   0.21521348   0.00810719   0.34894423
   22 1     3      0.00000      6.34022     13.19915      9.60478   #   H20   0.27939626   0.40210745   0.31094027
   23 1     3      0.00000      6.36429     12.47113      7.28534   #   H21   0.28155327   0.38438894   0.23585193
   24 1     3      0.00000      4.01968      0.53231      6.15006   #   H22   0.18083400   0.00185398   0.19909902
   25 1     3      0.00000      3.99561      1.26033      8.46950   #   H23   0.17867704   0.01957248   0.27418736
   26 1     3      0.00000      5.54787     12.64803      4.97614   #   H24   0.24501701   0.39585423   0.16109503
   27 1     3      0.00000      5.05657     15.55869      4.16794   #   H25   0.22152077   0.49181943   0.13493065
   28 1     3      0.00000      5.16891     14.52159      0.65417   #   H26   0.22821167   0.46710116   0.02117779
   29 1     1      0.00000      1.14655     13.68371      1.09156   #    C1   0.04536666   0.43896568   0.03533768
   30 1     2      0.00000      0.40947     13.26957      2.26356   #    C2   0.01164801   0.42267703   0.07327927
   31 1     2      0.00000      1.12674     12.86944      3.39585   #    C3   0.04413992   0.40693955   0.10993545
   32 1     2      0.00000      0.46007     12.46179      4.54950   #    C4   0.01362884   0.39090607   0.14728309
   33 1     2      0.00000     10.04403     12.44731      4.59057   #    C5   0.44990656   0.39033611   0.14861297
   34 1     2      0.00000      9.38054     12.03503      5.75729   #    C6   0.41953854   0.37412063   0.18638368
   35 1     2      0.00000      7.98603     12.01805      5.80531   #    C7   0.35605047   0.37345294   0.18793820
   36 1     2      0.00000      7.24192     12.41107      4.69309   #    C8   0.32233401   0.38891107   0.15193186
   37 1     2      0.00000      7.88610     12.82413      3.52419   #    C9   0.35182314   0.40515729   0.11409040
   38 1     2      0.00000      9.29635     12.84962      3.45206   #   C10   0.41603117   0.40615976   0.11175519
   39 1     2      0.00000      9.98088     13.26358      2.28054   #   C11   0.44735823   0.42244131   0.07382917
   40 1     1      0.00000      9.24981     13.68081      1.09976   #   C12   0.41424455   0.43885187   0.03560311
   41 1     2      0.00000      5.20106     10.09061      0.33076   #   C13   0.23187648   0.32488296   0.01070770
   42 1     2      0.00000      5.13104     10.27530     14.91119   #   C14   0.22410005   0.29450521   0.48272729
   43 1     2      0.00000      5.19084      8.84157     15.28984   #   C15   0.22738551   0.24728306   0.49498566
   44 1     2      0.00000      5.75144      7.19487      0.99246   #   C16   0.25810024   0.22976440   0.03212948
   45 1     2      0.00000      5.78836      5.83193      1.30066   #   C17   0.26033211   0.18500292   0.04210697
   46 1     2      0.00000      5.16906      4.88989      0.46500   #   C18   0.23284478   0.15667835   0.01505355
   47 1     2      0.00000      4.60846      6.53659     14.76237   #   C19   0.20213008   0.17419701   0.47790972
   48 1     2      0.00000      4.57154      7.89953     14.45418   #   C20   0.19989813   0.21895849   0.46793223
   49 1     2      0.00000      5.22886      3.45616      0.84365   #   C21   0.23613028   0.10945620   0.02731191
   50 1     2      0.00000      5.15883      3.64085     15.42408   #   C22   0.22835353   0.07907842   0.49933154
   51 1     2      0.00000      5.32132     14.72825     11.70116   #   C23   0.23164111   0.44623917   0.37880742
   52 1     2      0.00000      5.17688     15.51951     10.62837   #   C24   0.22502196   0.47445346   0.34407753
   53 1     2      0.00000      5.22331     15.02861      9.22858   #   C25   0.22780048   0.46209660   0.29876154
   54 1     2      0.00000      5.84897     13.81984      8.86877   #   C26   0.25696612   0.42397638   0.28711298
   55 1     2      0.00000      5.87557     13.40563      7.53397   #   C27   0.25878566   0.41393318   0.24390097
   56 1     2      0.00000      5.29797     14.19316      6.52626   #   C28   0.23242979   0.44186479   0.21127772
   57 1     2      0.00000      4.67232     15.40193      6.88607   #   C29   0.20326418   0.47998504   0.22292631
   58 1     2      0.00000      4.64572     15.81614      8.22087   #   C30   0.20144461   0.49002824   0.26613829
   59 1     2      0.00000      5.34440     13.70225      5.12647   #   C31   0.23520839   0.42950796   0.16596173
   60 1     2      0.00000      5.19996     14.49351      4.05368   #   C32   0.22858893   0.45772222   0.13123181
   61 1     2      0.00000      5.20071     14.25923      2.58222   #   C33   0.22918839   0.45382743   0.08359537
   62 1     2      0.00000      5.32047     14.96254     13.17262   #   C34   0.23103727   0.45013428   0.42644370
   63 1     2      0.00000      5.15842      2.15091     15.43760   #   C35   0.22903704   0.03095216   0.49976918
   64 1     2      0.00000      5.20138     11.58054      0.31723   #   C36   0.23118858   0.37300904   0.01026994
   65 1     4      0.00000      1.73688     14.01534      0.15304   #    N1   0.07237270   0.45200940   0.00495441
   66 1     4      0.00000      8.66710     14.01396      0.15695   #    N2   0.38785152   0.45195515   0.00508097
   67 1     5      0.00000      6.43226     15.04088     13.66707   #    O1   0.28145852   0.45143043   0.44245074
   68 1     5      0.00000      6.31303     14.18041      2.08899   #    O2   0.28001321   0.45251256   0.06762778
   69 1     5      0.00000      6.27035      1.65066     15.44280   #    O3   0.27989030   0.01479177   0.49993752
   70 1     5      0.00000      6.31355     12.08033      0.31325   #    O4   0.28158139   0.38915122   0.01014096
   71 1     5      0.00000      4.04621      1.65113     15.44158   #    O5   0.17864278   0.01480994   0.49989809
   72 1     5      0.00000      4.08889     14.18090      2.08777   #    O6   0.17876568   0.45253125   0.06758830
   73 1     5      0.00000      4.20813     15.04136     13.66583   #    O7   0.18021100   0.45144909   0.44241074
   74 1     5      0.00000      4.08942     12.08081      0.31201   #    O8   0.18033386   0.38916988   0.01010100
   75 1     6      0.00000      3.85396     15.20747     15.59898   #   Zn1   0.16341306   0.45199270   0.50499346
   76 1     6      0.00000      6.78436     15.20684     15.60059   #   Zn2   0.29681115   0.45196847   0.50504559
   77 1     3      0.00000      2.32764     14.06518     18.83151   #    H1   0.09347493   0.40706508   0.60964191
   78 1     3      0.00000      1.15803     13.34948     20.85691   #    H2   0.03994574   0.37891555   0.67521100
   79 1     3      0.00000     10.05794     12.91852     22.07665   #    H3   0.44491834   0.36196487   0.71469824
   80 1     3      0.00000      7.59764     12.89171     22.15244   #    H4   0.33290907   0.36091090   0.71715194
   81 1     3      0.00000      6.27761     13.58834     20.18103   #    H5   0.27309626   0.38831012   0.65333064
   82 1     3      0.00000      7.39047     14.31391     18.12777   #    H6   0.32404627   0.41684764   0.58685924
   83 1     3      0.00000      5.37223     14.67018     16.06464   #    H7   0.23263924   0.43348940   0.52006858
   84 1     3      0.00000      5.50927     11.08633     16.82094   #    H8   0.24034360   0.31592403   0.54455274
   85 1     3      0.00000      4.99789     11.69997     29.32692   #    H9   0.21291253   0.30456219   0.94941498
   86 1     3      0.00000      6.39233      9.07174     17.08966   #   H10   0.28141497   0.25022695   0.55325222
   87 1     3      0.00000      6.43472      6.70282     17.63446   #   H11   0.28430024   0.17240447   0.57088915
   88 1     3      0.00000      4.20191      7.04482     29.55464   #   H12   0.17881527   0.15373450   0.95678699
   89 1     3      0.00000      4.15952      9.41374     29.00984   #   H13   0.17593009   0.23155698   0.93915005
   90 1     3      0.00000      5.59635      4.41659     17.31738   #   H14   0.24731794   0.09939922   0.56062420
   91 1     3      0.00000      5.08496      5.03023     29.82336   #   H15   0.21988614   0.08803731   0.96548654
   92 1     3      0.00000      5.38337     16.93668     30.57967   #   H16   0.22759027   0.47047201   0.98997079
   93 1     3      0.00000      5.46952     15.89272     30.54540   #   H17   0.23201786   0.43686010   0.98886148
   94 1     3      0.00000      5.58187     14.85562     27.03163   #   H18   0.23870895   0.41214193   0.87510858
   95 1     3      0.00000      4.92920      2.27598     26.22343   #   H19   0.21521348   0.00810719   0.84894423
   96 1     3      0.00000      6.45739     14.39170     25.04951   #   H20   0.27939626   0.40210745   0.81094027
   97 1     3      0.00000      6.48146     13.66368     22.73007   #   H21   0.28155327   0.38438894   0.73585193
   98 1     3      0.00000      4.13685      1.72486     21.59479   #   H22   0.18083400   0.00185398   0.69909902
   99 1     3      0.00000      4.11278      2.45288     23.91423   #   H23   0.17867704   0.01957248   0.77418736
  100 1     3      0.00000      5.66504     13.84058     20.42087   #   H24   0.24501701   0.39585423   0.66109503
  101 1     3      0.00000      5.17373     16.75123     19.61267   #   H25   0.22152077   0.49181943   0.63493065
  102 1     3      0.00000      5.28608     15.71414     16.09890   #   H26   0.22821167   0.46710116   0.52117779
  103 1     1      0.00000      1.26371     14.87625     16.53629   #    C1   0.04536666   0.43896568   0.53533768
  104 1     2      0.00000      0.52664     14.46212     17.70829   #    C2   0.01164801   0.42267703   0.57327927
  105 1     2      0.00000      1.24391     14.06199     18.84058   #    C3   0.04413992   0.40693955   0.60993545
  106 1     2      0.00000      0.57724     13.65434     19.99423   #    C4   0.01362884   0.39090607   0.64728309
  107 1     2      0.00000     10.16119     13.63985     20.03531   #    C5   0.44990656   0.39033611   0.64861297
  108 1     2      0.00000      9.49771     13.22758     21.20202   #    C6   0.41953854   0.37412063   0.68638368
  109 1     2      0.00000      8.10320     13.21060     21.25004   #    C7   0.35605047   0.37345294   0.68793820
  110 1     2      0.00000      7.35909     13.60362     20.13783   #    C8   0.32233401   0.38891107   0.65193186
  111 1     2      0.00000      8.00326     14.01668     18.96892   #    C9   0.35182314   0.40515729   0.61409040
  112 1     2      0.00000      9.41351     14.04217     18.89679   #   C10   0.41603117   0.40615976   0.61175519
  113 1     2      0.00000     10.09805     14.45613     17.72528   #   C11   0.44735823   0.42244131   0.57382917
  114 1     1      0.00000      9.36697     14.87336     16.54449   #   C12   0.41424455   0.43885187   0.53560311
  115 1     2      0.00000      5.31823     11.28316     15.77549   #   C13   0.23187648   0.32488296   0.51070770
  116 1     2      0.00000      5.24821     11.46785     30.35592   #   C14   0.22410005   0.29450521   0.98272729
  117 1     2      0.00000      5.30801     10.03412     30.73457   #   C15   0.22738551   0.24728306   0.99498566
  118 1     2      0.00000      5.86861      8.38742     16.43719   #   C16   0.25810024   0.22976440   0.53212948
  119 1     2      0.00000      5.90553      7.02448     16.74539   #   C17   0.26033211   0.18500292   0.54210697
  120 1     2      0.00000      5.28623      6.08244     15.90973   #   C18   0.23284478   0.15667835   0.51505355
  121 1     2      0.00000      4.72563      7.72914     30.20711   #   C19   0.20213008   0.17419701   0.97790972
  122 1     2      0.00000      4.68871      9.09208     29.89891   #   C20   0.19989813   0.21895849   0.96793223
  123 1     2      0.00000      5.34603      4.64871     16.28838   #   C21   0.23613028   0.10945620   0.52731191
  124 1     2      0.00000      5.27600      4.83340     30.86882   #   C22   0.22835353   0.07907842   0.99933154
  125 1     2      0.00000      5.43849     15.92080     27.14589   #   C23   0.23164111   0.44623917   0.87880742
  126 1     2      0.00000      5.29405     16.71206     26.07310   #   C24   0.22502196   0.47445346   0.84407753
  127 1     2      0.00000      5.34048     16.22116     24.67332   #   C25   0.22780048   0.46209660   0.79876154
  128 1     2      0.00000      5.96613     15.01239     24.31350   #   C26   0.25696612   0.42397638   0.78711298
  129 1     2      0.00000      5.99274     14.59818     22.97870   #   C27   0.25878566   0.41393318   0.74390097
  130 1     2      0.00000      5.41514     15.38570     21.97099   #   C28   0.23242979   0.44186479   0.71127772
  131 1     2      0.00000      4.78949     16.59448     22.33081   #   C29   0.20326418   0.47998504   0.72292631
  132 1     2      0.00000      4.76288     17.00869     23.66560   #   C30   0.20144461   0.49002824   0.76613829
  133 1     2      0.00000      5.46157     14.89480     20.57120   #   C31   0.23520839   0.42950796   0.66596173
  134 1     2      0.00000      5.31713     15.68606     19.49841   #   C32   0.22858893   0.45772222   0.63123181
  135 1     2      0.00000      5.31788     15.45178     18.02695   #   C33   0.22918839   0.45382743   0.58359537
  136 1     2      0.00000      5.43764     16.15509     28.61735   #   C34   0.23103727   0.45013428   0.92644370
  137 1     2      0.00000      5.27559      3.34346     30.88233   #   C35   0.22903704   0.03095216   0.99976918
  138 1     2      0.00000      5.31855     12.77309     15.76196   #   C36   0.23118858   0.37300904   0.51026994
  139 1     4      0.00000      1.85405     15.20789     15.59777   #    N1   0.07237270   0.45200940   0.50495441
  140 1     4      0.00000      8.78427     15.20651     15.60168   #    N2   0.38785152   0.45195515   0.50508097
  141 1     5      0.00000      6.54943     16.23342     29.11180   #    O1   0.28145852   0.45143043   0.94245074
  142 1     5      0.00000      6.43019     15.37296     17.53372   #    O2   0.28001321   0.45251256   0.56762778
  143 1     5      0.00000      6.38752      2.84321     30.88753   #    O3   0.27989030   0.01479177   0.99993752
  144 1     5      0.00000      6.43072     13.27288     15.75798   #    O4   0.28158139   0.38915122   0.51014096
  145 1     5      0.00000      4.16338      2.84367     30.88632   #    O5   0.17864278   0.01480994   0.99989809
  146 1     5      0.00000      4.20606     15.37345     17.53250   #    O6   0.17876568   0.45253125   0.56758830
  147 1     5      0.00000      4.32529     16.23391     29.11056   #    O7   0.18021100   0.45144909   0.94241074
  148 1     5      0.00000      4.20659     13.27336     15.75675   #    O8   0.18033386   0.38916988   0.51010100
  149 1     6      0.00000      3.89818     29.50522      0.15425   #   Zn1   0.16341306   0.95199270   0.00499346
  150 1     6      0.00000      6.82857     29.50459      0.15586   #   Zn2   0.29681115   0.95196847   0.00504559
  151 1     3      0.00000      2.37185     28.36293      3.38678   #    H1   0.09347493   0.90706508   0.10964191
  152 1     3      0.00000      1.20224     27.64723      5.41217   #    H2   0.03994574   0.87891555   0.17521100
  153 1     3      0.00000     10.10216     27.21627      6.63191   #    H3   0.44491834   0.86196487   0.21469824
  154 1     3      0.00000      7.64186     27.18947      6.70771   #    H4   0.33290907   0.86091090   0.21715194
  155 1     3      0.00000      6.32182     27.88609      4.73630   #    H5   0.27309626   0.88831012   0.15333064
  156 1     3      0.00000      7.43469     28.61166      2.68304   #    H6   0.32404627   0.91684764   0.08685924
  157 1     3      0.00000      5.41645     28.96793      0.61991   #    H7   0.23263924   0.93348940   0.02006858
  158 1     3      0.00000      5.55348     25.38408      1.37621   #    H8   0.24034360   0.81592403   0.04455274
  159 1     3      0.00000      5.04210     25.99772     13.88219   #    H9   0.21291253   0.80456219   0.44941498
  160 1     3      0.00000      6.43654     23.36950      1.64493   #   H10   0.28141497   0.75022695   0.05325222
  161 1     3      0.00000      6.47894     21.00058      2.18973   #   H11   0.28430024   0.67240447   0.07088915
  162 1     3      0.00000      4.24613     21.34257     14.10990   #   H12   0.17881527   0.65373450   0.45678699
  163 1     3      0.00000      4.20373     23.71149     13.56511   #   H13   0.17593009   0.73155698   0.43915005
  164 1     3      0.00000      5.64057     18.71435      1.87265   #   H14   0.24731794   0.59939922   0.06062420
  165 1     3      0.00000      5.12917     19.32798     14.37863   #   H15   0.21988614   0.58803731   0.46548654
  166 1     3      0.00000      5.42759     31.23444     15.13493   #   H16   0.22759027   0.97047201   0.48997079
  167 1     3      0.00000      5.51374     30.19048     15.10067   #   H17   0.23201786   0.93686010   0.48886148
  168 1     3      0.00000      5.62609     29.15338     11.58690   #   H18   0.23870895   0.91214193   0.37510858
  169 1     3      0.00000      4.97342     16.57373     10.77870   #   H19   0.21521348   0.50810719   0.34894423
  170 1     3      0.00000      6.50160     28.68946      9.60478   #   H20   0.27939626   0.90210745   0.31094027
  171 1     3      0.00000      6.52567     27.96143      7.28534   #   H21   0.28155327   0.88438894   0.23585193
  172 1     3      0.00000      4.18106     16.02261      6.15006   #   H22   0.18083400   0.50185398   0.19909902
  173 1     3      0.00000      4.15700     16.75063      8.46950   #   H23   0.17867704   0.51957248   0.27418736
  174 1     3      0.00000      5.70925     28.13833      4.97614   #   H24   0.24501701   0.89585423   0.16109503
  175 1     3      0.00000      5.21795     31.04899      4.16794   #   H25   0.22152077   0.99181943   0.13493065
  176 1     3      0.00000      5.33030     30.01189      0.65417   #   H26   0.22821167   0.96710116   0.02117779
  177 1     1      0.00000      1.30793     29.17401      1.09156   #    C1   0.04536666   0.93896568   0.03533768
  178 1     2      0.00000      0.57086     28.75987      2.26356   #    C2   0.01164801   0.92267703   0.07327927
  179 1     2      0.00000      1.28813     28.35974      3.39585   #    C3   0.04413992   0.90693955   0.10993545
  180 1     2      0.00000      0.62146     27.95209      4.54950   #    C4   0.01362884   0.89090607   0.14728309
  181 1     2      0.00000     10.20541     27.93761      4.59057   #    C5   0.44990656   0.89033611   0.14861297
  182 1     2      0.00000      9.54192     27.52533      5.75729   #    C6   0.41953854   0.87412063   0.18638368
  183 1     2      0.00000      8.14741     27.50835      5.80531   #    C7   0.35605047   0.87345294   0.18793820
  184 1     2      0.00000      7.40331     27.90138      4.69309   #    C8   0.32233401   0.88891107   0.15193186
  185 1     2      0.00000      8.04748     28.31444      3.52419   #    C9   0.35182314   0.90515729   0.11409040
  186 1     2      0.00000      9.45773     28.33993      3.45206   #   C10   0.41603117   0.90615976   0.11175519
  187 1     2      0.00000     10.14227     28.75388      2.28054   #   C11   0.44735823   0.92244131   0.07382917
  188 1     1      0.00000      9.41119     29.17112      1.09976   #   C12   0.41424455   0.93885187   0.03560311
  189 1     2      0.00000      5.36244     25.58091      0.33076   #   C13   0.23187648   0.82488296   0.01070770
  190 1     2      0.00000      5.29242     25.76560     14.91119   #   C14   0.22410005   0.79450521   0.48272729
  191 1     2      0.00000      5.35223     24.33187     15.28984   #   C15   0.22738551   0.74728306   0.49498566
  192 1     2      0.00000      5.91283     22.68518      0.99246   #   C16   0.25810024   0.72976440   0.03212948
  193 1     2      0.00000      5.94975     21.32223      1.30066   #   C17   0.26033211   0.68500292   0.04210697
  194 1     2      0.00000      5.33044     20.38020      0.46500   #   C18   0.23284478   0.65667835   0.01505355
  195 1     2      0.00000      4.76984     22.02689     14.76237   #   C19   0.20213008   0.67419701   0.47790972
  196 1     2      0.00000      4.73292     23.38983     14.45418   #   C20   0.19989813   0.71895849   0.46793223
  197 1     2      0.00000      5.39025     18.94646      0.84365   #   C21   0.23613028   0.60945620   0.02731191
  198 1     2      0.00000      5.32022     19.13115     15.42408   #   C22   0.22835353   0.57907842   0.49933154
  199 1     2      0.00000      5.48270     30.21856     11.70116   #   C23   0.23164111   0.94623917   0.37880742
  200 1     2      0.00000      5.33827     31.00982     10.62837   #   C24   0.22502196   0.97445346   0.34407753
  201 1     2      0.00000      5.38469     30.51891      9.22858   #   C25   0.22780048   0.96209660   0.29876154
  202 1     2      0.00000      6.01035     29.31014      8.86877   #   C26   0.25696612   0.92397638   0.28711298
  203 1     2      0.00000      6.03695     28.89593      7.53397   #   C27   0.25878566   0.91393318   0.24390097
  204 1     2      0.00000      5.45936     29.68346      6.52626   #   C28   0.23242979   0.94186479   0.21127772
  205 1     2      0.00000      4.83370     30.89223      6.88607   #   C29   0.20326418   0.97998504   0.22292631
  206 1     2      0.00000      4.80710     31.30644      8.22087   #   C30   0.20144461   0.99002824   0.26613829
  207 1     2      0.00000      5.50579     29.19255      5.12647   #   C31   0.23520839   0.92950796   0.16596173
  208 1     2      0.00000      5.36135     29.98382      4.05368   #   C32   0.22858893   0.95772222   0.13123181
  209 1     2      0.00000      5.36209     29.74953      2.58222   #   C33   0.22918839   0.95382743   0.08359537
  210 1     2      0.00000      5.48186     30.45285     13.17262   #   C34   0.23103727   0.95013428   0.42644370
  211 1     2      0.00000      5.31980     17.64122     15.43760   #   C35   0.22903704   0.53095216   0.49976918
  212 1     2      0.00000      5.36276     27.07084      0.31723   #   C36   0.23118858   0.87300904   0.01026994
  213 1     4      0.00000      1.89827     29.50564      0.15304   #    N1   0.07237270   0.95200940   0.00495441
  214 1     4      0.00000      8.82848     29.50427      0.15695   #    N2   0.38785152   0.95195515   0.00508097
  215 1     5      0.00000      6.59364     30.53118     13.66707   #    O1   0.28145852   0.95143043   0.44245074
  216 1     5      0.00000      6.47441     29.67072      2.08899   #    O2   0.28001321   0.95251256   0.06762778
  217 1     5      0.00000      6.43173     17.14096     15.44280   #    O3   0.27989030   0.51479177   0.49993752
  218 1     5      0.00000      6.47494     27.57063      0.31325   #    O4   0.28158139   0.88915122   0.01014096
  219 1     5      0.00000      4.20760     17.14143     15.44158   #    O5   0.17864278   0.51480994   0.49989809
  220 1     5      0.00000      4.25028     29.67120      2.08777   #    O6   0.17876568   0.95253125   0.06758830
  221 1     5      0.00000      4.36951     30.53166     13.66583   #    O7   0.18021100   0.95144909   0.44241074
  222 1     5      0.00000      4.25080     27.57111      0.31201   #    O8   0.18033386   0.88916988   0.01010100
  223 1     6      0.00000      4.01535     30.69777     15.59898   #   Zn1   0.16341306   0.95199270   0.50499346
  224 1     6      0.00000      6.94574     30.69714     15.60059   #   Zn2   0.29681115   0.95196847   0.50504559
  225 1     3      0.00000      2.48902     29.55548     18.83151   #    H1   0.09347493   0.90706508   0.60964191
  226 1     3      0.00000      1.31941     28.83978     20.85691   #    H2   0.03994574   0.87891555   0.67521100
  227 1     3      0.00000     10.21933     28.40882     22.07665   #    H3   0.44491834   0.86196487   0.71469824
  228 1     3      0.00000      7.75903     28.38202     22.15244   #    H4   0.33290907   0.86091090   0.71715194