Created by Ryther's code on 2025-07-29 22:46:58.177023, modified by xyan11@uic.edu. 

    392 atoms
    464 bonds
    880 angles
    864 dihedrals
    168 impropers

    8 atom types
    14 bond types
    29 angle types
    6 dihedral types
    2 improper types

0.00000000 22.12102567 xlo xhi
0.00000000 20.60455432 ylo yhi
0.00000000 21.2981543 zlo zhi
0.00027851 0.00165562 1.65349782 xy xz yz 

Masses 

    1    12.0107  #   C
    2    1.00794  #   H
    3    14.0067  #   N
    4    14.0067  #   N
    5    15.9994  #   O
    6    15.9994  #   O
    7      65.38  #  Zn
    8      65.38  #  Zn

Pair Coeffs

    1       0.10500      3.43085  #  C_R C_R
    2       0.04400      2.57113  #  H_ H_
    3       0.06900      3.26069  #  N_2 N_2
    4       0.06900      3.26069  #  N_R N_R
    5       0.06000      3.11815  #  O_2_M O_2_M
    6       0.06000      3.11815  #  O_3_M O_3_M
    7       0.12400      2.46155  #  Zn4+2 Zn4+2
    8       0.06000      2.58361  #  Zn6f3 Zn6f3

Bond Coeffs

    1      54.94924      2.40433  #  O_2_M Zn6f3 bond order=0.5
    2      55.07699      2.48452  #  N_2 Zn6f3 bond order=0.5
    3      48.90184      1.84943  #  H_ Zn4+2 bond order=0.5
    4     103.61325      2.20128  #  N_2 Zn4+2 bond order=0.5
    5     100.76218      2.14847  #  O_3_M Zn4+2 bond order=0.5
    6     104.44141      2.12294  #  O_2_M Zn4+2 bond order=0.5
    7     357.44038      1.08142  #  C_R H_ bond order=1.0
    8     559.99521      0.99025  #  H_ O_3_M bond order=1.0
    9     931.53598      1.20133  #  C_R N_2 bond order=3.0
    10    462.65505      1.37926  #  C_R C_R bond order=1.5
    11    663.66675      1.34507  #  C_R N_R bond order=1.5
    12    391.66951      1.45800  #  C_R C_R bond order=1.0
    13    714.55744      1.26901  #  C_R O_2_M bond order=1.5
    14    678.02790      1.29140  #  C_R O_3_M bond order=1.5

Angle Coeffs

    1  cosine/periodic         67.02484            1            4  #  O_2_M Zn6f3 O_2_M
    2  cosine/periodic         70.47472            1            4  #  N_2 Zn6f3 O_2_M
    3  cosine/periodic         37.39156            1            4  #  H_ Zn4+2 N_2
    4  cosine/periodic         14.11273            1            4  #  H_ Zn4+2 H_
    5  cosine/periodic         35.40556            1            4  #  H_ Zn4+2 O_3_M
    6  cosine/periodic         36.20045            1            4  #  H_ Zn4+2 O_2_M
    7  cosine/periodic        100.10309            1            4  #  N_2 Zn4+2 O_3_M
    8  cosine/periodic        101.82219            1            4  #  N_2 Zn4+2 O_2_M
    9  cosine/periodic         95.61832            1            4  #  O_2_M Zn4+2 O_3_M
    10 cosine/periodic         97.36576            1            4  #  O_2_M Zn4+2 O_2_M
    11 cosine/periodic         43.63912            1            1  #  O_3_M H_ Zn4+2
    12 cosine/periodic        179.74893           -1            3  #  C_R C_R N_2
    13 cosine/periodic        111.29751           -1            3  #  C_R C_R C_R
    14 cosine/periodic         57.28902           -1            3  #  C_R C_R H_
    15 cosine/periodic         79.78069           -1            3  #  H_ C_R N_R
    16 cosine/periodic        153.68727           -1            3  #  C_R C_R N_R
    17 cosine/periodic        102.18328           -1            3  #  C_R C_R C_R
    18 cosine/periodic        137.71425           -1            3  #  C_R C_R O_2_M
    19 cosine/periodic        206.77843           -1            3  #  O_2_M C_R O_2_M
    20 cosine/periodic        134.57449           -1            3  #  C_R C_R O_3_M
    21 cosine/periodic        201.38050           -1            3  #  O_2_M C_R O_3_M
    22 fourier                 48.02888      0.36401      0.41847      0.28800  #  C_R N_2 Zn6f3
    23 cosine/periodic        120.00052           -1            3  #  C_R N_R C_R
    24 fourier                 84.89470      0.36401      0.41847      0.28800  #  C_R N_2 Zn4+2
    25 cosine/periodic         37.72922           -1            3  #  C_R O_2_M Zn4+2
    26 fourier                 41.31289      0.30023      0.26733      0.26675  #  H_ O_3_M Zn4+2
    27 fourier                 99.02913      0.30023      0.26733      0.26675  #  C_R O_3_M Zn4+2
    28 fourier                203.65891      0.30023      0.26733      0.26675  #  C_R O_3_M H_
    29 cosine/periodic         21.77718           -1            3  #  C_R O_2_M Zn6f3

Dihedral Coeffs

    1      27.96100           -1            2  #  X C_R N_2 X bond order=3.0
    2       6.73711           -1            2  #  X C_R C_R X bond order=1.5
    3       6.73711           -1            2  #  X C_R N_R X bond order=1.5
    4       1.25000           -1            2  #  X C_R C_R X bond order=1.0
    5       6.73711           -1            2  #  X C_R O_2_M X bond order=1.5
    6       0.31957           -1            2  #  X C_R O_3_M X bond order=1.5

Improper Coeffs

    1       2.00000      1.00000     -1.00000      0.00000            1  #  C_R X X X O_2 present=False
    2      16.66667      1.00000     -1.00000      0.00000            1  #  C_R X X X O_2 present=True

Atoms # a, b, c, alpha, beta, gamma: 22.1210256750, 20.6045543238, 21.3622432009, 85.5607048212, 89.9955594617, 89.9992255405 $$$atoms$$$

    1 1     8      0.00000      3.53174      4.84822      6.58732   #   Zn1   0.15962943   0.21047836   0.30929076
    2 1     7      0.00000      6.46213      4.84823      6.58705   #   Zn2   0.29210046   0.21047964   0.30927810
    3 1     2      0.00000      1.94116      4.14260      9.97993   #    H1   0.08771465   0.16344929   0.46858214
    4 1     2      0.00000      0.65589      2.88503      1.40218   #    H2   0.02964347   0.13473586   0.06583557
    5 1     2      0.00000      8.06086      4.14228      9.98145   #    H3   0.36436090   0.16342831   0.46865326
    6 1     2      0.00000      3.38855      9.99939      7.34473   #    H5   0.15315097   0.45762590   0.34485288
    7 1     2      0.00000      6.77787      7.86375      5.74850   #    H7   0.30637479   0.35999118   0.26990582
    8 1     2      0.00000      7.87687      9.99933      5.23093   #    H8   0.35605657   0.46558753   0.24560467
    9 1     2      0.00000      6.77779      1.83267      5.74849   #    H9   0.30637479   0.06728500   0.26990575
   10 1     2      0.00000      5.96487      5.53898      5.79389   #   H10   0.26962362   0.24699216   0.27203735
   11 1     2      0.00000      3.28928      3.21019      2.58187   #   H11   0.14868374   0.14607167   0.12122527
   12 1     2      0.00000      3.28909      3.02127      0.14852   #   H12   0.14868373   0.14607171   0.00697326
   13 1     2      0.00000      6.70403      6.48577     10.59297   #   H13   0.30302063   0.27486045   0.49736574
   14 1     2      0.00000      6.70339      5.84787      2.37640   #   H14   0.30302060   0.27486043   0.11157793
   15 1     2      0.00000      5.96499      5.65312      7.26422   #   H15   0.26962380   0.24699194   0.34107284
   16 1     1      0.00000      0.92680      4.64733      7.55325   #    C1   0.04186772   0.19708893   0.35464346
   17 1     1      0.00000      0.17198      4.39671      8.75821   #    C2   0.00774143   0.18038529   0.41121927
   18 1     1      0.00000      0.85798      4.14822      9.95293   #    C3   0.03874890   0.16382362   0.46731426
   19 1     1      0.00000      0.13510      3.07812      0.47383   #    C4   0.00610382   0.14760493   0.02224762
   20 1     1      0.00000      9.14349      4.14779      9.95500   #    C5   0.41330245   0.16379501   0.46741120
   21 1     1      0.00000      9.82407      4.39710      8.75630   #    C6   0.44407237   0.18041170   0.41112975
   22 1     1      0.00000      9.06804      4.64756      7.55213   #    C7   0.40989952   0.19710442   0.35459098
   23 1     1      0.00000      4.99695      0.92030      6.58719   #    C8   0.22586784   0.01984509   0.30928457
   24 1     1      0.00000      4.36826      9.99938      6.88333   #    C9   0.19744097   0.45936373   0.32318914
   25 1     1      0.00000      4.99705      8.77616      6.58719   #   C10   0.22586782   0.40111321   0.30928459
   26 1     1      0.00000      6.26863      8.78882      5.98833   #   C11   0.28335248   0.40398401   0.28116682
   27 1     1      0.00000      6.89757      9.99934      5.69213   #   C12   0.31178483   0.46385035   0.26725953
   28 1     1      0.00000      6.26852      0.90761      5.98833   #   C13   0.28335247   0.02148549   0.28116677
   29 1     1      0.00000      4.99669      4.54420      2.67104   #   C14   0.22586785   0.21047914   0.12541196
   30 1     1      0.00000      4.03949      3.74948      2.01702   #   C15   0.18259951   0.17437321   0.09470416
   31 1     1      0.00000      4.03938      3.64127      0.62325   #   C16   0.18259947   0.17437325   0.02926309
   32 1     1      0.00000      4.99730      5.15226     10.50334   #   C17   0.22586780   0.21047918   0.49315718
   33 1     1      0.00000      5.95289      5.11962      0.50827   #   C18   0.26910043   0.24655519   0.02386469
   34 1     1      0.00000      5.95299      5.22783      1.90216   #   C19   0.26910043   0.24655518   0.08931084
   35 1     1      0.00000      4.99716      4.98404      9.02287   #   C20   0.22586648   0.20789297   0.42364546
   36 1     1      0.00000      4.99674      4.71243      4.15151   #   C21   0.22586485   0.21306584   0.19492346
   37 1     1      0.00000      4.99696      7.28711      6.53405   #   C22   0.22586472   0.32904542   0.30678943
   38 1     1      0.00000      4.99694      2.40935      6.64033   #   C23   0.22586657   0.09191261   0.31177953
   39 1     3      0.00000      1.53183      4.84822      6.58740   #    N1   0.06922173   0.21047797   0.30929434
   40 1     4      0.00000      9.83692      3.08302      0.45030   #    N2   0.44468295   0.14793117   0.02114264
   41 1     3      0.00000      8.46204      4.84833      6.58687   #    N3   0.38250815   0.21048536   0.30926938
   42 1     5      0.00000      6.10883      4.76884      4.64827   #    O1   0.27613591   0.21393162   0.21824735
   43 1     5      0.00000      6.10917      4.92763      8.52590   #    O2   0.27613787   0.20702768   0.40031179
   44 1     6      0.00000      6.10900      6.78739      6.51616   #    O3   0.27613577   0.30485982   0.30594971
   45 1     5      0.00000      6.10900      2.90908      6.65800   #    O4   0.27613797   0.11609949   0.31260938
   46 1     5      0.00000      3.88486      6.78738      6.51637   #    O5   0.17559188   0.30485851   0.30595948
   47 1     5      0.00000      3.88504      4.92763      8.52611   #    O6   0.17559398   0.20702715   0.40032152
   48 1     5      0.00000      3.88470      4.76884      4.64846   #    O7   0.17559202   0.21393107   0.21825633
   49 1     5      0.00000      3.88487      2.90908      6.65820   #    O8   0.17559407   0.11609893   0.31261841
   50 1     8      0.00000      3.53257      5.67497     17.23640   #   Zn1   0.15962943   0.21047836   0.80929076
   51 1     7      0.00000      6.46296      5.67498     17.23613   #   Zn2   0.29210046   0.21047964   0.80927810
   52 1     2      0.00000      1.94199      4.96935     20.62901   #    H1   0.08771465   0.16344929   0.96858214
   53 1     2      0.00000      0.65672      3.71178     12.05125   #    H2   0.02964347   0.13473586   0.56583557
   54 1     2      0.00000      8.06169      4.96903     20.63053   #    H3   0.36436090   0.16342831   0.96865326
   55 1     2      0.00000      3.38938     10.82614     17.99381   #    H5   0.15315097   0.45762590   0.84485288
   56 1     2      0.00000      6.77870      8.69050     16.39757   #    H7   0.30637479   0.35999118   0.76990582
   57 1     2      0.00000      7.87770     10.82608     15.88000   #    H8   0.35605657   0.46558753   0.74560467
   58 1     2      0.00000      6.77862      2.65942     16.39757   #    H9   0.30637479   0.06728500   0.76990575
   59 1     2      0.00000      5.96570      6.36573     16.44297   #   H10   0.26962362   0.24699216   0.77203735
   60 1     2      0.00000      3.29011      4.03694     13.23095   #   H11   0.14868374   0.14607167   0.62122527
   61 1     2      0.00000      3.28992      3.84802     10.79759   #   H12   0.14868373   0.14607171   0.50697326
   62 1     2      0.00000      6.70486      7.31252     21.24205   #   H13   0.30302063   0.27486045   0.99736574
   63 1     2      0.00000      6.70422      6.67462     13.02548   #   H14   0.30302060   0.27486043   0.61157793
   64 1     2      0.00000      5.96582      6.47987     17.91330   #   H15   0.26962380   0.24699194   0.84107284
   65 1     1      0.00000      0.92763      5.47408     18.20233   #    C1   0.04186772   0.19708893   0.85464346
   66 1     1      0.00000      0.17281      5.22346     19.40729   #    C2   0.00774143   0.18038529   0.91121927
   67 1     1      0.00000      0.85881      4.97496     20.60201   #    C3   0.03874890   0.16382362   0.96731426
   68 1     1      0.00000      0.13593      3.90487     11.12291   #    C4   0.00610382   0.14760493   0.52224762
   69 1     1      0.00000      9.14432      4.97454     20.60407   #    C5   0.41330245   0.16379501   0.96741120
   70 1     1      0.00000      9.82490      5.22385     19.40538   #    C6   0.44407237   0.18041170   0.91112975
   71 1     1      0.00000      9.06887      5.47431     18.20121   #    C7   0.40989952   0.19710442   0.85459098
   72 1     1      0.00000      4.99777      1.74705     17.23627   #    C8   0.22586784   0.01984509   0.80928457
   73 1     1      0.00000      4.36909     10.82613     17.53241   #    C9   0.19744097   0.45936373   0.82318914
   74 1     1      0.00000      4.99788      9.60291     17.23627   #   C10   0.22586782   0.40111321   0.80928459
   75 1     1      0.00000      6.26945      9.61557     16.63741   #   C11   0.28335248   0.40398401   0.78116682
   76 1     1      0.00000      6.89840     10.82609     16.34121   #   C12   0.31178483   0.46385035   0.76725953
   77 1     1      0.00000      6.26935      1.73436     16.63741   #   C13   0.28335247   0.02148549   0.78116677
   78 1     1      0.00000      4.99752      5.37095     13.32012   #   C14   0.22586785   0.21047914   0.62541196
   79 1     1      0.00000      4.04032      4.57622     12.66610   #   C15   0.18259951   0.17437321   0.59470416
   80 1     1      0.00000      4.04021      4.46802     11.27233   #   C16   0.18259947   0.17437325   0.52926309
   81 1     1      0.00000      4.99813      5.97901     21.15241   #   C17   0.22586780   0.21047918   0.99315718
   82 1     1      0.00000      5.95371      5.94637     11.15735   #   C18   0.26910043   0.24655519   0.52386469
   83 1     1      0.00000      5.95382      6.05458     12.55123   #   C19   0.26910043   0.24655518   0.58931084
   84 1     1      0.00000      4.99799      5.81079     19.67194   #   C20   0.22586648   0.20789297   0.92364546
   85 1     1      0.00000      4.99757      5.53918     14.80059   #   C21   0.22586485   0.21306584   0.69492346
   86 1     1      0.00000      4.99779      8.11386     17.18313   #   C22   0.22586472   0.32904542   0.80678943
   87 1     1      0.00000      4.99777      3.23609     17.28941   #   C23   0.22586657   0.09191261   0.81177953
   88 1     3      0.00000      1.53265      5.67497     17.23648   #    N1   0.06922173   0.21047797   0.80929434
   89 1     4      0.00000      9.83775      3.90976     11.09938   #    N2   0.44468295   0.14793117   0.52114264
   90 1     3      0.00000      8.46287      5.67508     17.23594   #    N3   0.38250815   0.21048536   0.80926938
   91 1     5      0.00000      6.10966      5.59559     15.29734   #    O1   0.27613591   0.21393162   0.71824735
   92 1     5      0.00000      6.11000      5.75438     19.17498   #    O2   0.27613787   0.20702768   0.90031179
   93 1     6      0.00000      6.10983      7.61414     17.16524   #    O3   0.27613577   0.30485982   0.80594971
   94 1     5      0.00000      6.10983      3.73583     17.30708   #    O4   0.27613797   0.11609949   0.81260938
   95 1     5      0.00000      3.88569      7.61413     17.16545   #    O5   0.17559188   0.30485851   0.80595948
   96 1     5      0.00000      3.88587      5.75438     19.17519   #    O6   0.17559398   0.20702715   0.90032152
   97 1     5      0.00000      3.88552      5.59559     15.29753   #    O7   0.17559202   0.21393107   0.71825633
   98 1     5      0.00000      3.88570      3.73583     17.30727   #    O8   0.17559407   0.11609893   0.81261841
   99 1     8      0.00000      3.53188     15.15050      6.58732   #   Zn1   0.15962943   0.71047836   0.30929076
  100 1     7      0.00000      6.46227     15.15051      6.58705   #   Zn2   0.29210046   0.71047964   0.30927810
  101 1     2      0.00000      1.94130     14.44488      9.97993   #    H1   0.08771465   0.66344929   0.46858214
  102 1     2      0.00000      0.65603     13.18731      1.40218   #    H2   0.02964347   0.63473586   0.06583557
  103 1     2      0.00000      8.06100     14.44456      9.98145   #    H3   0.36436090   0.66342831   0.46865326
  104 1     2      0.00000      3.38869     20.30167      7.34473   #    H5   0.15315097   0.95762590   0.34485288
  105 1     2      0.00000      6.77801     18.16602      5.74850   #    H7   0.30637479   0.85999118   0.26990582
  106 1     2      0.00000      7.87701     20.30161      5.23093   #    H8   0.35605657   0.96558753   0.24560467
  107 1     2      0.00000      6.77793     12.13494      5.74849   #    H9   0.30637479   0.56728500   0.26990575
  108 1     2      0.00000      5.96501     15.84125      5.79389   #   H10   0.26962362   0.74699216   0.27203735
  109 1     2      0.00000      3.28942     13.51246      2.58187   #   H11   0.14868374   0.64607167   0.12122527
  110 1     2      0.00000      3.28923     13.32355      0.14852   #   H12   0.14868373   0.64607171   0.00697326
  111 1     2      0.00000      6.70417     16.78805     10.59297   #   H13   0.30302063   0.77486045   0.49736574
  112 1     2      0.00000      6.70353     16.15015      2.37640   #   H14   0.30302060   0.77486043   0.11157793
  113 1     2      0.00000      5.96513     15.95540      7.26422   #   H15   0.26962380   0.74699194   0.34107284
  114 1     1      0.00000      0.92694     14.94961      7.55325   #    C1   0.04186772   0.69708893   0.35464346
  115 1     1      0.00000      0.17212     14.69899      8.75821   #    C2   0.00774143   0.68038529   0.41121927
  116 1     1      0.00000      0.85812     14.45049      9.95293   #    C3   0.03874890   0.66382362   0.46731426
  117 1     1      0.00000      0.13524     13.38040      0.47383   #    C4   0.00610382   0.64760493   0.02224762
  118 1     1      0.00000      9.14363     14.45006      9.95500   #    C5   0.41330245   0.66379501   0.46741120
  119 1     1      0.00000      9.82421     14.69938      8.75630   #    C6   0.44407237   0.68041170   0.41112975
  120 1     1      0.00000      9.06818     14.94984      7.55213   #    C7   0.40989952   0.69710442   0.35459098
  121 1     1      0.00000      4.99709     11.22258      6.58719   #    C8   0.22586784   0.51984509   0.30928457
  122 1     1      0.00000      4.36840     20.30165      6.88333   #    C9   0.19744097   0.95936373   0.32318914
  123 1     1      0.00000      4.99719     19.07844      6.58719   #   C10   0.22586782   0.90111321   0.30928459
  124 1     1      0.00000      6.26876     19.09110      5.98833   #   C11   0.28335248   0.90398401   0.28116682
  125 1     1      0.00000      6.89771     20.30162      5.69213   #   C12   0.31178483   0.96385035   0.26725953
  126 1     1      0.00000      6.26866     11.20988      5.98833   #   C13   0.28335247   0.52148549   0.28116677
  127 1     1      0.00000      4.99683     14.84647      2.67104   #   C14   0.22586785   0.71047914   0.12541196
  128 1     1      0.00000      4.03963     14.05175      2.01702   #   C15   0.18259951   0.67437321   0.09470416
  129 1     1      0.00000      4.03952     13.94355      0.62325   #   C16   0.18259947   0.67437325   0.02926309
  130 1     1      0.00000      4.99744     15.45454     10.50334   #   C17   0.22586780   0.71047918   0.49315718
  131 1     1      0.00000      5.95303     15.42190      0.50827   #   C18   0.26910043   0.74655519   0.02386469
  132 1     1      0.00000      5.95313     15.53011      1.90216   #   C19   0.26910043   0.74655518   0.08931084
  133 1     1      0.00000      4.99730     15.28632      9.02287   #   C20   0.22586648   0.70789297   0.42364546
  134 1     1      0.00000      4.99688     15.01471      4.15151   #   C21   0.22586485   0.71306584   0.19492346
  135 1     1      0.00000      4.99710     17.58939      6.53405   #   C22   0.22586472   0.82904542   0.30678943
  136 1     1      0.00000      4.99708     12.71162      6.64033   #   C23   0.22586657   0.59191261   0.31177953
  137 1     3      0.00000      1.53197     15.15050      6.58740   #    N1   0.06922173   0.71047797   0.30929434
  138 1     4      0.00000      9.83706     13.38529      0.45030   #    N2   0.44468295   0.64793117   0.02114264
  139 1     3      0.00000      8.46218     15.15061      6.58687   #    N3   0.38250815   0.71048536   0.30926938
  140 1     5      0.00000      6.10897     15.07111      4.64827   #    O1   0.27613591   0.71393162   0.21824735
  141 1     5      0.00000      6.10931     15.22990      8.52590   #    O2   0.27613787   0.70702768   0.40031179
  142 1     6      0.00000      6.10914     17.08966      6.51616   #    O3   0.27613577   0.80485982   0.30594971
  143 1     5      0.00000      6.10914     13.21135      6.65800   #    O4   0.27613797   0.61609949   0.31260938
  144 1     5      0.00000      3.88500     17.08965      6.51637   #    O5   0.17559188   0.80485851   0.30595948
  145 1     5      0.00000      3.88518     15.22991      8.52611   #    O6   0.17559398   0.70702715   0.40032152
  146 1     5      0.00000      3.88484     15.07112      4.64846   #    O7   0.17559202   0.71393107   0.21825633
  147 1     5      0.00000      3.88501     13.21136      6.65820   #    O8   0.17559407   0.61609893   0.31261841
  148 1     8      0.00000      3.53270     15.97725     17.23640   #   Zn1   0.15962943   0.71047836   0.80929076
  149 1     7      0.00000      6.46310     15.97726     17.23613   #   Zn2   0.29210046   0.71047964   0.80927810
  150 1     2      0.00000      1.94213     15.27163     20.62901   #    H1   0.08771465   0.66344929   0.96858214
  151 1     2      0.00000      0.65686     14.01406     12.05125   #    H2   0.02964347   0.63473586   0.56583557
  152 1     2      0.00000      8.06183     15.27131     20.63053   #    H3   0.36436090   0.66342831   0.96865326
  153 1     2      0.00000      3.38952     21.12842     17.99381   #    H5   0.15315097   0.95762590   0.84485288
  154 1     2      0.00000      6.77884     18.99277     16.39757   #    H7   0.30637479   0.85999118   0.76990582
  155 1     2      0.00000      7.87784     21.12836     15.88000   #    H8   0.35605657   0.96558753   0.74560467
  156 1     2      0.00000      6.77876     12.96169     16.39757   #    H9   0.30637479   0.56728500   0.76990575
  157 1     2      0.00000      5.96584     16.66800     16.44297   #   H10   0.26962362   0.74699216   0.77203735
  158 1     2      0.00000      3.29025     14.33921     13.23095   #   H11   0.14868374   0.64607167   0.62122527
  159 1     2      0.00000      3.29006     14.15030     10.79759   #   H12   0.14868373   0.64607171   0.50697326
  160 1     2      0.00000      6.70499     17.61480     21.24205   #   H13   0.30302063   0.77486045   0.99736574
  161 1     2      0.00000      6.70435     16.97690     13.02548   #   H14   0.30302060   0.77486043   0.61157793
  162 1     2      0.00000      5.96596     16.78215     17.91330   #   H15   0.26962380   0.74699194   0.84107284
  163 1     1      0.00000      0.92777     15.77636     18.20233   #    C1   0.04186772   0.69708893   0.85464346
  164 1     1      0.00000      0.17295     15.52573     19.40729   #    C2   0.00774143   0.68038529   0.91121927
  165 1     1      0.00000      0.85895     15.27724     20.60201   #    C3   0.03874890   0.66382362   0.96731426
  166 1     1      0.00000      0.13607     14.20715     11.12291   #    C4   0.00610382   0.64760493   0.52224762
  167 1     1      0.00000      9.14446     15.27681     20.60407   #    C5   0.41330245   0.66379501   0.96741120
  168 1     1      0.00000      9.82503     15.52613     19.40538   #    C6   0.44407237   0.68041170   0.91112975
  169 1     1      0.00000      9.06901     15.77659     18.20121   #    C7   0.40989952   0.69710442   0.85459098
  170 1     1      0.00000      4.99791     12.04933     17.23627   #    C8   0.22586784   0.51984509   0.80928457
  171 1     1      0.00000      4.36923     21.12840     17.53241   #    C9   0.19744097   0.95936373   0.82318914
  172 1     1      0.00000      4.99802     19.90519     17.23627   #   C10   0.22586782   0.90111321   0.80928459
  173 1     1      0.00000      6.26959     19.91785     16.63741   #   C11   0.28335248   0.90398401   0.78116682
  174 1     1      0.00000      6.89854     21.12837     16.34121   #   C12   0.31178483   0.96385035   0.76725953
  175 1     1      0.00000      6.26949     12.03663     16.63741   #   C13   0.28335247   0.52148549   0.78116677
  176 1     1      0.00000      4.99766     15.67322     13.32012   #   C14   0.22586785   0.71047914   0.62541196
  177 1     1      0.00000      4.04046     14.87850     12.66610   #   C15   0.18259951   0.67437321   0.59470416
  178 1     1      0.00000      4.04035     14.77030     11.27233   #   C16   0.18259947   0.67437325   0.52926309
  179 1     1      0.00000      4.99827     16.28129     21.15241   #   C17   0.22586780   0.71047918   0.99315718
  180 1     1      0.00000      5.95385     16.24865     11.15735   #   C18   0.26910043   0.74655519   0.52386469
  181 1     1      0.00000      5.95396     16.35686     12.55123   #   C19   0.26910043   0.74655518   0.58931084
  182 1     1      0.00000      4.99812     16.11306     19.67194   #   C20   0.22586648   0.70789297   0.92364546
  183 1     1      0.00000      4.99771     15.84146     14.80059   #   C21   0.22586485   0.71306584   0.69492346
  184 1     1      0.00000      4.99793     18.41614     17.18313   #   C22   0.22586472   0.82904542   0.80678943
  185 1     1      0.00000      4.99791     13.53837     17.28941   #   C23   0.22586657   0.59191261   0.81177953
  186 1     3      0.00000      1.53279     15.97725     17.23648   #    N1   0.06922173   0.71047797   0.80929434
  187 1     4      0.00000      9.83789     14.21204     11.09938   #    N2   0.44468295   0.64793117   0.52114264
  188 1     3      0.00000      8.46301     15.97736     17.23594   #    N3   0.38250815   0.71048536   0.80926938
  189 1     5      0.00000      6.10980     15.89786     15.29734   #    O1   0.27613591   0.71393162   0.71824735
  190 1     5      0.00000      6.11014     16.05665     19.17498   #    O2   0.27613787   0.70702768   0.90031179
  191 1     6      0.00000      6.10996     17.91641     17.16524   #    O3   0.27613577   0.80485982   0.80594971
  192 1     5      0.00000      6.10997     14.03810     17.30708   #    O4   0.27613797   0.61609949   0.81260938
  193 1     5      0.00000      3.88583     17.91640     17.16545   #    O5   0.17559188   0.80485851   0.80595948
  194 1     5      0.00000      3.88601     16.05666     19.17519   #    O6   0.17559398   0.70702715   0.90032152
  195 1     5      0.00000      3.88566     15.89787     15.29753   #    O7   0.17559202   0.71393107   0.71825633
  196 1     5      0.00000      3.88584     14.03811     17.30727   #    O8   0.17559407   0.61609893   0.81261841
  197 1     8      0.00000     14.59225      4.84822      6.58732   #   Zn1   0.65962943   0.21047836   0.30929076
  198 1     7      0.00000     17.52265      4.84823      6.58705   #   Zn2   0.79210046   0.21047964   0.30927810
  199 1     2      0.00000     13.00167      4.14260      9.97993   #    H1   0.58771465   0.16344929   0.46858214
  200 1     2      0.00000     11.71640      2.88503      1.40218   #    H2   0.52964347   0.13473586   0.06583557
  201 1     2      0.00000     19.12137      4.14228      9.98145   #    H3   0.86436090   0.16342831   0.46865326
  202 1     2      0.00000     14.44907      9.99939      7.34473   #    H5   0.65315097   0.45762590   0.34485288
  203 1     2      0.00000     17.83838      7.86375      5.74850   #    H7   0.80637479   0.35999118   0.26990582
  204 1     2      0.00000     18.93739      9.99933      5.23093   #    H8   0.85605657   0.46558753   0.24560467
  205 1     2      0.00000     17.83830      1.83267      5.74849   #    H9   0.80637479   0.06728500   0.26990575
  206 1     2      0.00000     17.02538      5.53898      5.79389   #   H10   0.76962362   0.24699216   0.27203735
  207 1     2      0.00000     14.34979      3.21019      2.58187   #   H11   0.64868374   0.14607167   0.12122527
  208 1     2      0.00000     14.34960      3.02127      0.14852   #   H12   0.64868373   0.14607171   0.00697326
  209 1     2      0.00000     17.76454      6.48577     10.59297   #   H13   0.80302063   0.27486045   0.49736574
  210 1     2      0.00000     17.76390      5.84787      2.37640   #   H14   0.80302060   0.27486043   0.11157793
  211 1     2      0.00000     17.02550      5.65312      7.26422   #   H15   0.76962380   0.24699194   0.34107284
  212 1     1      0.00000     11.98731      4.64733      7.55325   #    C1   0.54186772   0.19708893   0.35464346
  213 1     1      0.00000     11.23249      4.39671      8.75821   #    C2   0.50774143   0.18038529   0.41121927
  214 1     1      0.00000     11.91850      4.14822      9.95293   #    C3   0.53874890   0.16382362   0.46731426
  215 1     1      0.00000     11.19561      3.07812      0.47383   #    C4   0.50610382   0.14760493   0.02224762