Created by Ryther's code on 2025-07-29 22:46:53.372335, modified by xyan11@uic.edu. 

    568 atoms
    664 bonds
    1248 angles
    1360 dihedrals
    272 impropers

    7 atom types
    15 bond types
    34 angle types
    5 dihedral types
    2 improper types

0.00000000 38.48007934 xlo xhi
0.00000000 29.9881154 ylo yhi
0.00000000 21.29823647 zlo zhi
0.00513883 5.119e-05 1.65243998 xy xz yz 

Masses 

    1    12.0107  #   C
    2    1.00794  #   H
    3    14.0067  #   N
    4    15.9994  #   O
    5    15.9994  #   O
    6      65.38  #  Zn
    7      65.38  #  Zn

Pair Coeffs

    1       0.10500      3.43085  #  C_R C_R
    2       0.04400      2.57113  #  H_ H_
    3       0.06900      3.26069  #  N_2 N_2
    4       0.06000      3.11815  #  O_2_M O_2_M
    5       0.06000      3.11815  #  O_3_M O_3_M
    6       0.12400      2.46155  #  Zn4+2 Zn4+2
    7       0.04000      2.67270  #  Zn8f4 Zn8f4

Bond Coeffs

    1      43.57940      2.59350  #  N_2 Zn8f4 bond order=0.5
    2      42.04147      2.53807  #  O_3_M Zn8f4 bond order=0.5
    3      43.32822      2.51269  #  O_2_M Zn8f4 bond order=0.5
    4      18.86555      2.24262  #  H_ Zn8f4 bond order=0.5
    5     104.44141      2.12294  #  O_2_M Zn4+2 bond order=0.5
    6      48.90184      1.84943  #  H_ Zn4+2 bond order=0.5
    7     100.76218      2.14847  #  O_3_M Zn4+2 bond order=0.5
    8     103.61325      2.20128  #  N_2 Zn4+2 bond order=0.5
    9     357.44038      1.08142  #  C_R H_ bond order=1.0
    10    559.99521      0.99025  #  H_ O_3_M bond order=1.0
    11    462.65505      1.37926  #  C_R C_R bond order=1.5
    12    931.53598      1.20133  #  C_R N_2 bond order=3.0
    13    391.66951      1.45800  #  C_R C_R bond order=1.0
    14    714.55744      1.26901  #  C_R O_2_M bond order=1.5
    15    678.02790      1.29140  #  C_R O_3_M bond order=1.5

Angle Coeffs

    1  fourier                 70.41858      0.34375      0.37500      0.28125  #  N_2 Zn8f4 O_3_M
    2  fourier                 71.45583      0.34375      0.37500      0.28125  #  N_2 Zn8f4 O_2_M
    3  fourier                 25.79329      0.34375      0.37500      0.28125  #  H_ Zn8f4 N_2
    4  fourier                 66.78648      0.34375      0.37500      0.28125  #  O_2_M Zn8f4 O_3_M
    5  fourier                 24.20745      0.34375      0.37500      0.28125  #  H_ Zn8f4 O_3_M
    6  fourier                 24.62448      0.34375      0.37500      0.28125  #  H_ Zn8f4 O_2_M
    7  fourier                 67.80662      0.34375      0.37500      0.28125  #  O_2_M Zn8f4 O_2_M
    8  cosine/periodic         97.36576            1            4  #  O_2_M Zn4+2 O_2_M
    9  cosine/periodic         36.20045            1            4  #  H_ Zn4+2 O_2_M
    10 cosine/periodic         95.61832            1            4  #  O_2_M Zn4+2 O_3_M
    11 cosine/periodic        101.82219            1            4  #  N_2 Zn4+2 O_2_M
    12 cosine/periodic         35.40556            1            4  #  H_ Zn4+2 O_3_M
    13 cosine/periodic         37.39156            1            4  #  H_ Zn4+2 N_2
    14 cosine/periodic         14.11273            1            4  #  H_ Zn4+2 H_
    15 cosine/periodic        100.10309            1            4  #  N_2 Zn4+2 O_3_M
    16 cosine/periodic         20.34317            1            1  #  O_3_M H_ Zn8f4
    17 cosine/periodic         43.63912            1            1  #  O_3_M H_ Zn4+2
    18 cosine/periodic        179.74893           -1            3  #  C_R C_R N_2
    19 cosine/periodic        111.29751           -1            3  #  C_R C_R C_R
    20 cosine/periodic         57.28902           -1            3  #  C_R C_R H_
    21 cosine/periodic        102.18328           -1            3  #  C_R C_R C_R
    22 cosine/periodic        137.71425           -1            3  #  C_R C_R O_2_M
    23 cosine/periodic        206.77843           -1            3  #  O_2_M C_R O_2_M
    24 cosine/periodic        134.57449           -1            3  #  C_R C_R O_3_M
    25 cosine/periodic        201.38050           -1            3  #  O_2_M C_R O_3_M
    26 fourier                 38.69249      0.36401      0.41847      0.28800  #  C_R N_2 Zn8f4
    27 fourier                 84.89470      0.36401      0.41847      0.28800  #  C_R N_2 Zn4+2
    28 cosine/periodic         37.72922           -1            3  #  C_R O_2_M Zn4+2
    29 fourier                203.65891      0.30023      0.26733      0.26675  #  C_R O_3_M H_
    30 fourier                 41.31289      0.30023      0.26733      0.26675  #  H_ O_3_M Zn4+2
    31 fourier                 99.02913      0.30023      0.26733      0.26675  #  C_R O_3_M Zn4+2
    32 cosine/periodic         17.67091           -1            3  #  C_R O_2_M Zn8f4
    33 fourier                 17.70941      0.30023      0.26733      0.26675  #  H_ O_3_M Zn8f4
    34 fourier                 44.86565      0.30023      0.26733      0.26675  #  C_R O_3_M Zn8f4

Dihedral Coeffs

    1       6.73711           -1            2  #  X C_R C_R X bond order=1.5
    2      27.96100           -1            2  #  X C_R N_2 X bond order=3.0
    3       1.25000           -1            2  #  X C_R C_R X bond order=1.0
    4       6.73711           -1            2  #  X C_R O_2_M X bond order=1.5
    5       0.31957           -1            2  #  X C_R O_3_M X bond order=1.5

Improper Coeffs

    1       2.00000      1.00000     -1.00000      0.00000            1  #  C_R X X X O_2 present=False
    2      16.66667      1.00000     -1.00000      0.00000            1  #  C_R X X X O_2 present=True

Atoms # a, b, c, alpha, beta, gamma: 38.4800793351, 29.9881158364, 21.3622432009, 85.5635507060, 89.9998626958, 89.9901816756 $$$atoms$$$

    1 1     7      0.00000     14.59213     15.14994      6.58919   #   Zn1   0.37914692   0.48815047   0.30937736
    2 1     6      0.00000     17.52252     15.14990      6.58915   #   Zn2   0.45530048   0.48814921   0.30937524
    3 1     2      0.00000      9.82694     14.11863      8.48002   #    H1   0.25531679   0.44886794   0.39815601
    4 1     2      0.00000      7.37424     14.12667      8.49237   #    H2   0.19157730   0.44910396   0.39873560
    5 1     2      0.00000      7.37167      1.17922      4.68586   #    H3   0.19156721   0.02719965   0.22001154
    6 1     2      0.00000      9.82437      1.18725      4.69821   #    H4   0.25530659   0.02743555   0.22059134
    7 1     2      0.00000      5.50037     13.12333      7.33893   #    H5   0.14288439   0.41863016   0.34457918
    8 1     2      0.00000      3.04767     13.13444      7.34860   #    H6   0.07914494   0.41897570   0.34503322
    9 1     2      0.00000      3.04510      2.17145      5.82962   #    H7   0.07912646   0.05732772   0.27371379
   10 1     2      0.00000      5.49780      2.18256      5.83929   #    H8   0.14286585   0.05767336   0.27416773
   11 1     2      0.00000     15.27783     14.41275      5.64529   #    H9   0.39696951   0.46600966   0.26505886
   12 1     2      0.00000     17.43864     11.02936      8.24944   #   H10   0.45313945   0.34644781   0.38732973
   13 1     2      0.00000     17.44735      8.58853      8.24114   #   H11   0.45337668   0.26507629   0.38693999
   14 1     2      0.00000     14.66597      8.58929      4.93823   #   H12   0.38109455   0.27364684   0.23186120
   15 1     2      0.00000     14.67629     11.02967      4.92921   #   H13   0.38135206   0.35504858   0.23143751
   16 1     2      0.00000     16.11067      6.71673      4.43151   #   H14   0.41864701   0.21251442   0.20806916
   17 1     2      0.00000     16.09689      4.27634      4.43065   #   H15   0.41829959   0.13113828   0.20802874
   18 1     2      0.00000     16.01313      4.27620      8.74892   #   H17   0.41612420   0.11996121   0.41078135
   19 1     2      0.00000     16.00123      6.71702      8.74814   #   H18   0.41580412   0.20135621   0.41074474
   20 1     2      0.00000     17.02276      0.84664      5.79598   #   H19   0.44237646   0.01323689   0.27213445
   21 1     2      0.00000     14.34995     13.51211      2.58364   #   H20   0.37285947   0.44389759   0.12130791
   22 1     2      0.00000     14.34994     13.32331      0.15028   #   H21   0.37285946   0.44389761   0.00705590
   23 1     2      0.00000     17.76157      1.79318     10.59517   #   H22   0.46157327   0.03238432   0.49746684
   24 1     2      0.00000     17.76155      1.15569      2.37857   #   H23   0.46157325   0.03238430   0.11167903
   25 1     2      0.00000     17.02277      0.96071      7.26632   #   H24   0.44237656   0.01323674   0.34116994
   26 1     1      0.00000     11.43496     15.14997      6.58911   #    C1   0.29710010   0.48815170   0.30937371
   27 1     1      0.00000      9.99546     15.14997      6.58911   #    C2   0.25969109   0.48815174   0.30937364
   28 1     1      0.00000      9.29370     14.56838      7.65096   #    C3   0.24145712   0.46601032   0.35922976
   29 1     1      0.00000      7.89551     14.56730      7.65185   #    C4   0.20512175   0.46597223   0.35927148
   30 1     1      0.00000      7.18002     15.14997      6.58911   #    C5   0.18652497   0.48815177   0.30937354
   31 1     1      0.00000      7.89295      0.73859      5.52637   #    C6   0.20511602   0.01033138   0.25947569
   32 1     1      0.00000      9.29113      0.73751      5.52726   #    C7   0.24145137   0.01029321   0.25951747
   33 1     1      0.00000      5.69459     15.14997      6.58911   #    C8   0.14792242   0.48815175   0.30937349
   34 1     1      0.00000      4.97910     14.01677      7.01896   #    C9   0.12933369   0.44925135   0.32955600
   35 1     1      0.00000      3.58091     14.01780      7.01802   #   C10   0.09299834   0.44928806   0.32951197
   36 1     1      0.00000      2.87915     15.14997      6.58911   #   C11   0.07475628   0.48815170   0.30937352
   37 1     1      0.00000      1.43965     15.14997      6.58911   #   C12   0.03734726   0.48815166   0.30937364
   38 1     1      0.00000      3.57834      1.28808      6.16020   #   C13   0.09298798   0.02701537   0.28923504
   39 1     1      0.00000      4.97653      1.28911      6.15926   #   C14   0.12932332   0.02705214   0.28919093
   40 1     1      0.00000     16.05727     11.22199      6.58898   #   C15   0.41723984   0.35716757   0.30936728
   41 1     1      0.00000     16.82973     10.50821      7.52121   #   C16   0.43731753   0.33095360   0.35313790
   42 1     1      0.00000     16.82882      9.11046      7.52177   #   C17   0.43730014   0.28434178   0.35316382
   43 1     1      0.00000     16.05659      8.39565      6.58969   #   C18   0.41723456   0.26291710   0.30940062
   44 1     1      0.00000     15.28488      9.11092      5.65749   #   C19   0.39717649   0.28918067   0.26563178
   45 1     1      0.00000     15.28491     10.50874      5.65764   #   C20   0.39717100   0.33579251   0.26563902
   46 1     1      0.00000     16.05602      6.91013      6.58980   #   C21   0.41722642   0.21337985   0.30940576
   47 1     1      0.00000     16.07649      6.19499      5.37972   #   C22   0.41776127   0.19266314   0.25258988
   48 1     1      0.00000     16.07651      4.79718      5.37971   #   C23   0.41776813   0.14605094   0.25258936
   49 1     1      0.00000     16.05494      4.08379      6.58937   #   C24   0.41721089   0.11913232   0.30938560
   50 1     1      0.00000     16.03390      4.79744      7.79995   #   C25   0.41666129   0.13979805   0.36622496
   51 1     1      0.00000     16.03500      6.19520      7.79996   #   C26   0.41668377   0.18640843   0.36622562
   52 1     1      0.00000     16.05738     14.84608      2.67301   #   C27   0.41722537   0.48814994   0.12550383
   53 1     1      0.00000     15.10022     14.05141      2.01888   #   C28   0.39235446   0.46334269   0.09479085
   54 1     1      0.00000     15.10021     13.94327      0.62510   #   C29   0.39235444   0.46334272   0.02934978
   55 1     1      0.00000     16.05740     15.45376     10.50533   #   C30   0.41722534   0.48814996   0.49324905
   56 1     1      0.00000     17.01118      0.42754      0.51034   #   C31   0.44207573   0.01293666   0.02396173
   57 1     1      0.00000     17.01118      0.53569      1.90423   #   C32   0.44207572   0.01293665   0.08940788
   58 1     1      0.00000     16.05736     15.28561      9.02486   #   C33   0.41722478   0.48637301   0.42373721
   59 1     1      0.00000     16.05732     15.01425      4.15349   #   C34   0.41722345   0.48992723   0.19501545
   60 1     1      0.00000     16.05482      2.59475      6.53615   #   C35   0.41721457   0.06961541   0.30688699
   61 1     1      0.00000     16.05729     12.71103      6.64219   #   C36   0.41723364   0.40668430   0.31186570
   62 1     3      0.00000     12.59222     15.14997      6.58912   #    N1   0.32717429   0.48815167   0.30937375
   63 1     3      0.00000      0.28239     15.14997      6.58912   #    N2   0.00727310   0.48815165   0.30937374
   64 1     4      0.00000     17.16937     15.07061      4.65033   #    O1   0.44612269   0.49052128   0.21834338
   65 1     4      0.00000     17.16942     15.22921      8.52797   #    O2   0.44612433   0.48577767   0.40040749
   66 1     5      0.00000     17.16686      2.09501      6.51833   #    O3   0.44611570   0.05299696   0.30605012
   67 1     4      0.00000     17.16936     13.21075      6.65997   #    O4   0.44613130   0.42330199   0.31270071
   68 1     4      0.00000     14.94272      2.09503      6.51837   #    O5   0.38831608   0.05299769   0.30605189
   69 1     4      0.00000     14.94528     15.22925      8.52801   #    O6   0.38832471   0.48577893   0.40040923
   70 1     5      0.00000     14.94523     15.07065      4.65035   #    O7   0.38832307   0.49052253   0.21834437
   71 1     4      0.00000     14.94522     13.21079      6.66000   #    O8   0.38833167   0.42330324   0.31270174
   72 1     7      0.00000     14.59215     15.97616     17.23831   #   Zn1   0.37914692   0.48815047   0.80937736
   73 1     6      0.00000     17.52255     15.97612     17.23827   #   Zn2   0.45530048   0.48814921   0.80937524
   74 1     2      0.00000      9.82696     14.94485     19.12914   #    H1   0.25531679   0.44886794   0.89815601
   75 1     2      0.00000      7.37426     14.95289     19.14148   #    H2   0.19157730   0.44910396   0.89873560
   76 1     2      0.00000      7.37170      2.00544     15.33498   #    H3   0.19156721   0.02719965   0.72001154
   77 1     2      0.00000      9.82440      2.01347     15.34732   #    H4   0.25530659   0.02743555   0.72059134
   78 1     2      0.00000      5.50040     13.94955     17.98805   #    H5   0.14288439   0.41863016   0.84457918
   79 1     2      0.00000      3.04770     13.96066     17.99772   #    H6   0.07914494   0.41897570   0.84503322
   80 1     2      0.00000      3.04513      2.99767     16.47874   #    H7   0.07912646   0.05732772   0.77371379
   81 1     2      0.00000      5.49783      3.00878     16.48841   #    H8   0.14286585   0.05767336   0.77416773
   82 1     2      0.00000     15.27785     15.23897     16.29440   #    H9   0.39696951   0.46600966   0.76505886
   83 1     2      0.00000     17.43867     11.85558     18.89856   #   H10   0.45313945   0.34644781   0.88732973
   84 1     2      0.00000     17.44738      9.41475     18.89026   #   H11   0.45337668   0.26507629   0.88693999
   85 1     2      0.00000     14.66599      9.41551     15.58735   #   H12   0.38109455   0.27364684   0.73186120
   86 1     2      0.00000     14.67632     11.85589     15.57833   #   H13   0.38135206   0.35504858   0.73143751
   87 1     2      0.00000     16.11070      7.54295     15.08062   #   H14   0.41864701   0.21251442   0.70806916
   88 1     2      0.00000     16.09691      5.10256     15.07976   #   H15   0.41829959   0.13113828   0.70802874
   89 1     2      0.00000     16.01316      5.10242     19.39804   #   H17   0.41612420   0.11996121   0.91078135
   90 1     2      0.00000     16.00126      7.54324     19.39726   #   H18   0.41580412   0.20135621   0.91074474
   91 1     2      0.00000     17.02279      1.67286     16.44510   #   H19   0.44237646   0.01323689   0.77213445
   92 1     2      0.00000     14.34997     14.33833     13.23276   #   H20   0.37285947   0.44389759   0.62130791
   93 1     2      0.00000     14.34997     14.14953     10.79940   #   H21   0.37285946   0.44389761   0.50705590
   94 1     2      0.00000     17.76159      2.61940     21.24428   #   H22   0.46157327   0.03238432   0.99746684
   95 1     2      0.00000     17.76157      1.98191     13.02768   #   H23   0.46157325   0.03238430   0.61167903
   96 1     2      0.00000     17.02280      1.78693     17.91544   #   H24   0.44237656   0.01323674   0.84116994
   97 1     1      0.00000     11.43499     15.97619     17.23823   #    C1   0.29710010   0.48815170   0.80937371
   98 1     1      0.00000      9.99548     15.97619     17.23823   #    C2   0.25969109   0.48815174   0.80937364
   99 1     1      0.00000      9.29373     15.39460     18.30008   #    C3   0.24145712   0.46601032   0.85922976
  100 1     1      0.00000      7.89554     15.39352     18.30097   #    C4   0.20512175   0.46597223   0.85927148
  101 1     1      0.00000      7.18005     15.97619     17.23823   #    C5   0.18652497   0.48815177   0.80937354
  102 1     1      0.00000      7.89297      1.56481     16.17549   #    C6   0.20511602   0.01033138   0.75947569
  103 1     1      0.00000      9.29116      1.56373     16.17638   #    C7   0.24145137   0.01029321   0.75951747
  104 1     1      0.00000      5.69462     15.97619     17.23823   #    C8   0.14792242   0.48815175   0.80937349
  105 1     1      0.00000      4.97912     14.84299     17.66808   #    C9   0.12933369   0.44925135   0.82955600
  106 1     1      0.00000      3.58093     14.84402     17.66714   #   C10   0.09299834   0.44928806   0.82951197
  107 1     1      0.00000      2.87918     15.97619     17.23823   #   C11   0.07475628   0.48815170   0.80937352
  108 1     1      0.00000      1.43968     15.97619     17.23823   #   C12   0.03734726   0.48815166   0.80937364
  109 1     1      0.00000      3.57836      2.11430     16.80931   #   C13   0.09298798   0.02701537   0.78923504
  110 1     1      0.00000      4.97655      2.11533     16.80838   #   C14   0.12932332   0.02705214   0.78919093
  111 1     1      0.00000     16.05730     12.04821     17.23810   #   C15   0.41723984   0.35716757   0.80936728
  112 1     1      0.00000     16.82976     11.33443     18.17033   #   C16   0.43731753   0.33095360   0.85313790
  113 1     1      0.00000     16.82885      9.93668     18.17088   #   C17   0.43730014   0.28434178   0.85316382
  114 1     1      0.00000     16.05661      9.22187     17.23881   #   C18   0.41723456   0.26291710   0.80940062
  115 1     1      0.00000     15.28491      9.93714     16.30661   #   C19   0.39717649   0.28918067   0.76563178
  116 1     1      0.00000     15.28494     11.33496     16.30676   #   C20   0.39717100   0.33579251   0.76563902
  117 1     1      0.00000     16.05604      7.73635     17.23892   #   C21   0.41722642   0.21337985   0.80940576
  118 1     1      0.00000     16.07652      7.02121     16.02884   #   C22   0.41776127   0.19266314   0.75258988
  119 1     1      0.00000     16.07654      5.62340     16.02883   #   C23   0.41776813   0.14605094   0.75258936
  120 1     1      0.00000     16.05496      4.91001     17.23849   #   C24   0.41721089   0.11913232   0.80938560
  121 1     1      0.00000     16.03392      5.62366     18.44906   #   C25   0.41666129   0.13979805   0.86622496
  122 1     1      0.00000     16.03503      7.02142     18.44908   #   C26   0.41668377   0.18640843   0.86622562
  123 1     1      0.00000     16.05741     15.67230     13.32213   #   C27   0.41722537   0.48814994   0.62550383
  124 1     1      0.00000     15.10024     14.87763     12.66800   #   C28   0.39235446   0.46334269   0.59479085
  125 1     1      0.00000     15.10024     14.76949     11.27422   #   C29   0.39235444   0.46334272   0.52934978
  126 1     1      0.00000     16.05742     16.27998     21.15445   #   C30   0.41722534   0.48814996   0.99324905
  127 1     1      0.00000     17.01120      1.25376     11.15946   #   C31   0.44207573   0.01293666   0.52396173
  128 1     1      0.00000     17.01121      1.36191     12.55335   #   C32   0.44207572   0.01293665   0.58940788
  129 1     1      0.00000     16.05739     16.11183     19.67397   #   C33   0.41722478   0.48637301   0.92373721
  130 1     1      0.00000     16.05734     15.84047     14.80260   #   C34   0.41722345   0.48992723   0.69501545
  131 1     1      0.00000     16.05485      3.42097     17.18527   #   C35   0.41721457   0.06961541   0.80688699
  132 1     1      0.00000     16.05731     13.53725     17.29131   #   C36   0.41723364   0.40668430   0.81186570
  133 1     3      0.00000     12.59224     15.97619     17.23823   #    N1   0.32717429   0.48815167   0.80937375
  134 1     3      0.00000      0.28242     15.97619     17.23823   #    N2   0.00727310   0.48815165   0.80937374
  135 1     4      0.00000     17.16939     15.89683     15.29945   #    O1   0.44612269   0.49052128   0.71834338
  136 1     4      0.00000     17.16944     16.05543     19.17709   #    O2   0.44612433   0.48577767   0.90040749
  137 1     5      0.00000     17.16688      2.92123     17.16745   #    O3   0.44611570   0.05299696   0.80605012
  138 1     4      0.00000     17.16938     14.03697     17.30909   #    O4   0.44613130   0.42330199   0.81270071
  139 1     4      0.00000     14.94275      2.92125     17.16748   #    O5   0.38831608   0.05299769   0.80605189
  140 1     4      0.00000     14.94531     16.05547     19.17713   #    O6   0.38832471   0.48577893   0.90040923
  141 1     5      0.00000     14.94526     15.89687     15.29947   #    O7   0.38832307   0.49052253   0.71834437
  142 1     4      0.00000     14.94525     14.03701     17.30911   #    O8   0.38833167   0.42330324   0.81270174
  143 1     7      0.00000     14.59470     30.14400      6.58919   #   Zn1   0.37914692   0.98815047   0.30937736
  144 1     6      0.00000     17.52509     30.14396      6.58915   #   Zn2   0.45530048   0.98814921   0.30937524
  145 1     2      0.00000      9.82951     29.11269      8.48002   #    H1   0.25531679   0.94886794   0.39815601
  146 1     2      0.00000      7.37681     29.12073      8.49237   #    H2   0.19157730   0.94910396   0.39873560
  147 1     2      0.00000      7.37424     16.17328      4.68586   #    H3   0.19156721   0.52719965   0.22001154
  148 1     2      0.00000      9.82694     16.18131      4.69821   #    H4   0.25530659   0.52743555   0.22059134
  149 1     2      0.00000      5.50294     28.11738      7.33893   #    H5   0.14288439   0.91863016   0.34457918
  150 1     2      0.00000      3.05024     28.12850      7.34860   #    H6   0.07914494   0.91897570   0.34503322
  151 1     2      0.00000      3.04767     17.16550      5.82962   #    H7   0.07912646   0.55732772   0.27371379
  152 1     2      0.00000      5.50037     17.17662      5.83929   #    H8   0.14286585   0.55767336   0.27416773
  153 1     2      0.00000     15.28040     29.40680      5.64529   #    H9   0.39696951   0.96600966   0.26505886
  154 1     2      0.00000     17.44121     26.02341      8.24944   #   H10   0.45313945   0.84644781   0.38732973
  155 1     2      0.00000     17.44992     23.58259      8.24114   #   H11   0.45337668   0.76507629   0.38693999
  156 1     2      0.00000     14.66854     23.58335      4.93823   #   H12   0.38109455   0.77364684   0.23186120
  157 1     2      0.00000     14.67886     26.02373      4.92921   #   H13   0.38135206   0.85504858   0.23143751
  158 1     2      0.00000     16.11324     21.71079      4.43151   #   H14   0.41864701   0.71251442   0.20806916
  159 1     2      0.00000     16.09946     19.27040      4.43065   #   H15   0.41829959   0.63113828   0.20802874
  160 1     2      0.00000     16.01570     19.27026      8.74892   #   H17   0.41612420   0.61996121   0.41078135
  161 1     2      0.00000     16.00380     21.71108      8.74814   #   H18   0.41580412   0.70135621   0.41074474
  162 1     2      0.00000     17.02533     15.84069      5.79598   #   H19   0.44237646   0.51323689   0.27213445
  163 1     2      0.00000     14.35252     28.50616      2.58364   #   H20   0.37285947   0.94389759   0.12130791
  164 1     2      0.00000     14.35251     28.31737      0.15028   #   H21   0.37285946   0.94389761   0.00705590
  165 1     2      0.00000     17.76414     16.78724     10.59517   #   H22   0.46157327   0.53238432   0.49746684
  166 1     2      0.00000     17.76412     16.14974      2.37857   #   H23   0.46157325   0.53238430   0.11167903
  167 1     2      0.00000     17.02534     15.95477      7.26632   #   H24   0.44237656   0.51323674   0.34116994
  168 1     1      0.00000     11.43753     30.14403      6.58911   #    C1   0.29710010   0.98815170   0.30937371
  169 1     1      0.00000      9.99803     30.14403      6.58911   #    C2   0.25969109   0.98815174   0.30937364
  170 1     1      0.00000      9.29627     29.56243      7.65096   #    C3   0.24145712   0.96601032   0.35922976
  171 1     1      0.00000      7.89808     29.56136      7.65185   #    C4   0.20512175   0.96597223   0.35927148
  172 1     1      0.00000      7.18259     30.14403      6.58911   #    C5   0.18652497   0.98815177   0.30937354
  173 1     1      0.00000      7.89552     15.73264      5.52637   #    C6   0.20511602   0.51033138   0.25947569
  174 1     1      0.00000      9.29370     15.73157      5.52726   #    C7   0.24145137   0.51029321   0.25951747
  175 1     1      0.00000      5.69716     30.14403      6.58911   #    C8   0.14792242   0.98815175   0.30937349
  176 1     1      0.00000      4.98167     29.01083      7.01896   #    C9   0.12933369   0.94925135   0.32955600
  177 1     1      0.00000      3.58348     29.01186      7.01802   #   C10   0.09299834   0.94928806   0.32951197
  178 1     1      0.00000      2.88172     30.14403      6.58911   #   C11   0.07475628   0.98815170   0.30937352
  179 1     1      0.00000      1.44222     30.14403      6.58911   #   C12   0.03734726   0.98815166   0.30937364
  180 1     1      0.00000      3.58091     16.28214      6.16020   #   C13   0.09298798   0.52701537   0.28923504
  181 1     1      0.00000      4.97909     16.28317      6.15926   #   C14   0.12932332   0.52705214   0.28919093
  182 1     1      0.00000     16.05984     26.21605      6.58898   #   C15   0.41723984   0.85716757   0.30936728
  183 1     1      0.00000     16.83230     25.50227      7.52121   #   C16   0.43731753   0.83095360   0.35313790
  184 1     1      0.00000     16.83139     24.10451      7.52177   #   C17   0.43730014   0.78434178   0.35316382
  185 1     1      0.00000     16.05916     23.38971      6.58969   #   C18   0.41723456   0.76291710   0.30940062
  186 1     1      0.00000     15.28745     24.10498      5.65749   #   C19   0.39717649   0.78918067   0.26563178
  187 1     1      0.00000     15.28748     25.50279      5.65764   #   C20   0.39717100   0.83579251   0.26563902
  188 1     1      0.00000     16.05859     21.90419      6.58980   #   C21   0.41722642   0.71337985   0.30940576
  189 1     1      0.00000     16.07906     21.18905      5.37972   #   C22   0.41776127   0.69266314   0.25258988
  190 1     1      0.00000     16.07908     19.79124      5.37971   #   C23   0.41776813   0.64605094   0.25258936
  191 1     1      0.00000     16.05751     19.07785      6.58937   #   C24   0.41721089   0.61913232   0.30938560
  192 1     1      0.00000     16.03647     19.79150      7.79995   #   C25   0.41666129   0.63979805   0.36622496
  193 1     1      0.00000     16.03757     21.18926      7.79996   #   C26   0.41668377   0.68640843   0.36622562
  194 1     1      0.00000     16.05995     29.84014      2.67301   #   C27   0.41722537   0.98814994   0.12550383
  195 1     1      0.00000     15.10279     29.04547      2.01888   #   C28   0.39235446   0.96334269   0.09479085
  196 1     1      0.00000     15.10278     28.93733      0.62510   #   C29   0.39235444   0.96334272   0.02934978
  197 1     1      0.00000     16.05997     30.44782     10.50533   #   C30   0.41722534   0.98814996   0.49324905
  198 1     1      0.00000     17.01375     15.42160      0.51034   #   C31   0.44207573   0.51293666   0.02396173
  199 1     1      0.00000     17.01375     15.52974      1.90423   #   C32   0.44207572   0.51293665   0.08940788
  200 1     1      0.00000     16.05993     30.27967      9.02486   #   C33   0.41722478   0.98637301   0.42373721
  201 1     1      0.00000     16.05989     30.00830      4.15349   #   C34   0.41722345   0.98992723   0.19501545
  202 1     1      0.00000     16.05739     17.58881      6.53615   #   C35   0.41721457   0.56961541   0.30688699
  203 1     1      0.00000     16.05986     27.70509      6.64219   #   C36   0.41723364   0.90668430   0.31186570
  204 1     3      0.00000     12.59479     30.14403      6.58912   #    N1   0.32717429   0.98815167   0.30937375
  205 1     3      0.00000      0.28496     30.14403      6.58912   #    N2   0.00727310   0.98815165   0.30937374
  206 1     4      0.00000     17.17194     30.06467      4.65033   #    O1   0.44612269   0.99052128   0.21834338
  207 1     4      0.00000     17.17199     30.22326      8.52797   #    O2   0.44612433   0.98577767   0.40040749
  208 1     5      0.00000     17.16942     17.08907      6.51833   #    O3   0.44611570   0.55299696   0.30605012
  209 1     4      0.00000     17.17193     28.20481      6.65997   #    O4   0.44613130   0.92330199   0.31270071
  210 1     4      0.00000     14.94529     17.08909      6.51837   #    O5   0.38831608   0.55299769   0.30605189
  211 1     4      0.00000     14.94785     30.22330      8.52801   #    O6   0.38832471   0.98577893   0.40040923