Created by Ryther's code on 2025-08-05 17:25:46.650349, modified by xyan11@uic.edu. 

    720 atoms
    816 bonds
    1440 angles
    1704 dihedrals
    344 impropers

    10 atom types
    18 bond types
    34 angle types
    8 dihedral types
    2 improper types

0.00000000 43.07939703 xlo xhi
0.00000000 30.89613309 ylo yhi
0.00000000 34.1429587 zlo zhi
-0.06912097 -0.25014358 2.44185787 xy xz yz 

Masses 

    1    12.0107  #   C
    2    1.00794  #   H
    3    14.0067  #   N
    4    14.0067  #   N
    5    14.0067  #   N
    6    15.9994  #   O
    7    15.9994  #   O
    8    15.9994  #   O
    9      65.38  #  Zn
   10      65.38  #  Zn

Pair Coeffs

    1       0.10500      3.43085  #  C_R C_R
    2       0.04400      2.57113  #  H_ H_
    3       0.06900      3.26069  #  N_2 N_2
    4       0.06900      3.26069  #  N_3 N_3
    5       0.06900      3.26069  #  N_R N_R
    6       0.06000      3.11815  #  O_1 O_1
    7       0.06000      3.11815  #  O_2_M O_2_M
    8       0.06000      3.11815  #  O_3_M O_3_M
    9       0.12400      2.46155  #  Zn4+2 Zn4+2
    10      0.06000      2.58361  #  Zn6f3 Zn6f3

Bond Coeffs

    1      54.94924      2.40433  #  O_2_M Zn6f3 bond order=0.5
    2      55.07699      2.48452  #  N_2 Zn6f3 bond order=0.5
    3     104.44141      2.12294  #  O_2_M Zn4+2 bond order=0.5
    4      48.90184      1.84943  #  H_ Zn4+2 bond order=0.5
    5     100.76218      2.14847  #  O_3_M Zn4+2 bond order=0.5
    6     103.61325      2.20128  #  N_2 Zn4+2 bond order=0.5
    7     357.44038      1.08142  #  C_R H_ bond order=1.0
    8     527.90376      1.04442  #  H_ N_3 bond order=1.0
    9     559.99521      0.99025  #  H_ O_3_M bond order=1.0
    10    931.53598      1.20133  #  C_R N_2 bond order=3.0
    11    462.65505      1.37926  #  C_R C_R bond order=1.5
    12    391.66951      1.45800  #  C_R C_R bond order=1.0
    13    560.26893      1.42319  #  C_R N_3 bond order=1.0
    14    706.67500      1.27367  #  C_R O_1 bond order=1.5
    15    561.44721      1.42220  #  C_R N_R bond order=1.0
    16    714.55744      1.26901  #  C_R O_2_M bond order=1.5
    17    678.02790      1.29140  #  C_R O_3_M bond order=1.5
    18    928.96322      1.32250  #  N_R N_R bond order=1.5

Angle Coeffs

    1  cosine/periodic         67.02484            1            4  #  O_2_M Zn6f3 O_2_M
    2  cosine/periodic         70.47472            1            4  #  N_2 Zn6f3 O_2_M
    3  cosine/periodic         36.20045            1            4  #  H_ Zn4+2 O_2_M
    4  cosine/periodic         95.61832            1            4  #  O_2_M Zn4+2 O_3_M
    5  cosine/periodic         97.36576            1            4  #  O_2_M Zn4+2 O_2_M
    6  cosine/periodic        101.82219            1            4  #  N_2 Zn4+2 O_2_M
    7  cosine/periodic         14.11273            1            4  #  H_ Zn4+2 H_
    8  cosine/periodic         35.40556            1            4  #  H_ Zn4+2 O_3_M
    9  cosine/periodic         37.39156            1            4  #  H_ Zn4+2 N_2
    10 cosine/periodic        100.10309            1            4  #  N_2 Zn4+2 O_3_M
    11 cosine/periodic         43.63912            1            1  #  O_3_M H_ Zn4+2
    12 cosine/periodic        179.74893           -1            3  #  C_R C_R N_2
    13 cosine/periodic        111.29751           -1            3  #  C_R C_R C_R
    14 cosine/periodic         57.28902           -1            3  #  C_R C_R H_
    15 cosine/periodic        102.18328           -1            3  #  C_R C_R C_R
    16 cosine/periodic        129.92907           -1            3  #  C_R C_R N_3
    17 cosine/periodic        137.04263           -1            3  #  C_R C_R O_1
    18 cosine/periodic        189.84281           -1            3  #  N_3 C_R O_1
    19 cosine/periodic         94.22104           -1            3  #  C_R C_R C_R
    20 cosine/periodic        141.32633           -1            3  #  C_R C_R N_R
    21 cosine/periodic        137.71425           -1            3  #  C_R C_R O_2_M
    22 cosine/periodic        206.77843           -1            3  #  O_2_M C_R O_2_M
    23 cosine/periodic        134.57449           -1            3  #  C_R C_R O_3_M
    24 cosine/periodic        201.38050           -1            3  #  O_2_M C_R O_3_M
    25 fourier                 48.02888      0.36401      0.41847      0.28800  #  C_R N_2 Zn6f3
    26 fourier                150.57460      0.31751      0.31322      0.27250  #  C_R N_3 H_
    27 fourier                276.50199      0.31751      0.31322      0.27250  #  C_R N_3 C_R
    28 fourier                 84.89470      0.36401      0.41847      0.28800  #  C_R N_2 Zn4+2
    29 cosine/periodic        150.06495           -1            3  #  C_R N_R N_R
    30 fourier                 41.31289      0.30023      0.26733      0.26675  #  H_ O_3_M Zn4+2
    31 fourier                 99.02913      0.30023      0.26733      0.26675  #  C_R O_3_M Zn4+2
    32 fourier                203.65891      0.30023      0.26733      0.26675  #  C_R O_3_M H_
    33 cosine/periodic         37.72922           -1            3  #  C_R O_2_M Zn4+2
    34 cosine/periodic         21.77718           -1            3  #  C_R O_2_M Zn6f3

Dihedral Coeffs

    1      27.96100           -1            2  #  X C_R N_2 X bond order=3.0
    2       6.73711           -1            2  #  X C_R C_R X bond order=1.5
    3       1.25000           -1            2  #  X C_R C_R X bond order=1.0
    4       0.25000           -1            6  #  X C_R N_3 X bond order=1.0
    5       2.50000           -1            2  #  X C_R N_R X bond order=1.0
    6       6.73711           -1            2  #  X C_R O_2_M X bond order=1.5
    7       0.31957           -1            2  #  X C_R O_3_M X bond order=1.5
    8      13.47422           -1            2  #  X N_R N_R X bond order=1.5

Improper Coeffs

    1       2.00000      1.00000     -1.00000      0.00000            1  #  C_R X X X O_2 present=False
    2      16.66667      1.00000     -1.00000      0.00000            1  #  C_R X X X O_2 present=True

Atoms # a, b, c, alpha, beta, gamma: 43.0793970274, 30.8962104069, 34.2310804753, 85.9084296471, 90.4186925716, 90.1281821621 $$$atoms$$$

    1 1     10     0.00000     14.35813     14.75073      2.28471   #   Zn1   0.33444070   0.47214102   0.06691602
    2 1     9      0.00000     17.28848     14.75706      2.26887   #   Zn2   0.40246036   0.47238260   0.06645212
    3 1     2      0.00000      9.08852     15.07543      1.07726   #    H1   0.21193357   0.48544545   0.03155153
    4 1     2      0.00000      6.96947      0.67760      1.57068   #    H2   0.16207851   0.01829577   0.04600298
    5 1     2      0.00000      8.63315      2.36258      5.18901   #    H3   0.20138682   0.06445677   0.15197893
    6 1     2      0.00000     10.79267      1.32316      4.66733   #    H4   0.25137478   0.03202207   0.13669965
    7 1     2      0.00000      5.08801      0.72394      2.84891   #    H5   0.11861936   0.01683678   0.08344058
    8 1     2      0.00000      3.17200     15.25155      3.73704   #    H6   0.07504514   0.48498884   0.10945287
    9 1     2      0.00000      1.01839     14.15297      3.36343   #    H7   0.02493424   0.45029668   0.09851024
   10 1     2      0.00000     20.92306      2.41734      1.95556   #    H8   0.48613677   0.07371419   0.05727564
   11 1     2      0.00000      1.54288      3.52774      2.30131   #    H9   0.03638073   0.10885365   0.06740225
   12 1     2      0.00000     17.74187      9.81060      2.13277   #   H11   0.41270544   0.31259799   0.06246593
   13 1     2      0.00000     16.90213      7.65893      2.92173   #   H12   0.39323206   0.24112961   0.08557344
   14 1     2      0.00000     12.94972      9.34417      3.32842   #   H13   0.30164023   0.29473366   0.09748468
   15 1     2      0.00000     13.79154     11.50549      2.55809   #   H14   0.32116542   0.36647108   0.07492298
   16 1     2      0.00000     15.30066      6.40197      1.15760   #   H15   0.35569862   0.20452968   0.03390444
   17 1     2      0.00000     16.17087      4.25412      0.39157   #   H16   0.37565981   0.13678459   0.01146842
   18 1     2      0.00000     15.37752      2.54863      4.28008   #   H17   0.35780208   0.07258261   0.12535760
   19 1     2      0.00000     14.52564      4.70616      5.04996   #   H18   0.33826753   0.14063213   0.14790646
   20 1     2      0.00000     17.15076     15.32388      1.37708   #   H19   0.39914457   0.49279296   0.04033265
   21 1     2      0.00000     17.63843      1.11467     14.98591   #   H20   0.41199098   0.00138835   0.43891656
   22 1     2      0.00000     17.41103     16.28845     12.56494   #   H21   0.40709744   0.49811474   0.36800972
   23 1     2      0.00000     13.53834     14.46590     13.06451   #   H22   0.31718952   0.43796896   0.38264155
   24 1     2      0.00000     13.72094     14.73605     15.49590   #   H23   0.32184654   0.44108439   0.45385355
   25 1     2      0.00000     18.01672      0.81423      8.56077   #   H24   0.41968754   0.00653720   0.25073308
   26 1     2      0.00000     17.83455      0.54431      6.12975   #   H25   0.41504052   0.00342837   0.17953186
   27 1     2      0.00000     13.91698     14.16558      6.63878   #   H26   0.32489433   0.44312274   0.19444055
   28 1     2      0.00000     14.10947     14.43973      9.06022   #   H27   0.32977956   0.44639100   0.26536129
   29 1     2      0.00000     16.69665     15.21920      2.88759   #   H28   0.38884929   0.48590824   0.08457354
   30 1     1      0.00000     11.33834     15.23623      2.53850   #    C1   0.26440978   0.48726748   0.07434916
   31 1     1      0.00000     10.10421      0.39745      2.84087   #    C2   0.23504183   0.00628788   0.08320527
   32 1     1      0.00000      9.01662      0.21885      1.97884   #    C3   0.20964303   0.00250284   0.05795748
   33 1     1      0.00000      7.78353      0.81037      2.27070   #    C4   0.18109845   0.02097256   0.06650555
   34 1     1      0.00000      7.62108      1.58503      3.43472   #    C5   0.17756137   0.04335124   0.10059817
   35 1     1      0.00000      8.72486      1.76856      4.28808   #    C6   0.20333494   0.04731613   0.12559197
   36 1     1      0.00000      9.95639      1.17522      3.99447   #    C7   0.23184282   0.02879119   0.11699252
   37 1     1      0.00000      6.32110      2.22411      3.75379   #    C8   0.14747144   0.06329729   0.10994318
   38 1     1      0.00000      3.85492      2.43201      3.23854   #    C9   0.09014918   0.07121893   0.09485230
   39 1     1      0.00000      2.55495      1.75046      3.02474   #   C10   0.05990204   0.04965444   0.08859048
   40 1     1      0.00000      2.39250      0.38488      3.32519   #   C11   0.05611019   0.00476019   0.09739028
   41 1     1      0.00000      1.12484     15.20452      3.12481   #   C12   0.02742034   0.48488405   0.09152138
   42 1     1      0.00000      0.07181      0.48329      2.62812   #   C13   0.00212932   0.00955898   0.07697390
   43 1     1      0.00000     20.30827     15.28284      2.42298   #   C14   0.47261163   0.48904354   0.07096565
   44 1     1      0.00000      0.21963      1.84386      2.33733   #   C15   0.00558287   0.05426896   0.06845708
   45 1     1      0.00000      1.45117      2.47483      2.53772   #   C16   0.03423651   0.07422718   0.07432616
   46 1     1      0.00000     15.83179     10.82598      2.27639   #   C17   0.36844351   0.34512976   0.06667241
   47 1     1      0.00000     16.69253      9.72113      2.38427   #   C18   0.38838433   0.30912002   0.06983211
   48 1     1      0.00000     16.20996      8.48605      2.82635   #   C19   0.37719184   0.26812130   0.08277986
   49 1     1      0.00000     14.85381      8.32731      3.15948   #   C20   0.34575890   0.26221237   0.09253684
   50 1     1      0.00000     13.99713      9.43622      3.06821   #   C21   0.32591514   0.29831532   0.08986362
   51 1     1      0.00000     14.47904     10.67158      2.62582   #   C22   0.33709223   0.33932338   0.07690674
   52 1     1      0.00000     14.33383      7.02650      3.64706   #   C23   0.33370209   0.21898091   0.10681730
   53 1     1      0.00000     14.87164      5.72805      3.17270   #   C24   0.34604002   0.17805274   0.09292391
   54 1     1      0.00000     15.33209      5.57337      1.85385   #   C25   0.35650101   0.17609927   0.05429666
   55 1     1      0.00000     15.82091      4.34046      1.41257   #   C26   0.36771040   0.13721572   0.04137217
   56 1     1      0.00000     15.84950      3.23375      2.27719   #   C27   0.36846052   0.09939408   0.06669588
   57 1     1      0.00000     15.37316      3.38407      3.59111   #   C28   0.35762951   0.10121779   0.10517875
   58 1     1      0.00000     14.88409      4.61725      4.03171   #   C29   0.34641423   0.14011158   0.11808306
   59 1     1      0.00000     15.67784     15.67115     15.43215   #   C30   0.36730995   0.47149799   0.45198637
   60 1     1      0.00000     16.71042     16.10331     14.58209   #   C31   0.39116018   0.48745319   0.42708911
   61 1     1      0.00000     16.60124     15.94693     13.19693   #   C32   0.38838724   0.48559817   0.38651987
   62 1     1      0.00000     15.45522     15.35462     12.63876   #   C33   0.36166125   0.46771920   0.37017172
   63 1     1      0.00000     14.42622     14.92372     13.48269   #   C34   0.33789310   0.45181903   0.39488940
   64 1     1      0.00000     14.53360     15.07924     14.86788   #   C35   0.34062414   0.45364609   0.43545961
   65 1     1      0.00000     16.06529     15.37358      8.98646   #   C36   0.37521623   0.47678709   0.26320094
   66 1     1      0.00000     17.09431     15.80448      8.14251   #   C37   0.39898475   0.49268757   0.23848274
   67 1     1      0.00000     16.98714     15.64906      6.75724   #   C38   0.39625837   0.49086360   0.19791020
   68 1     1      0.00000     15.84382     15.05758      6.19292   #   C39   0.36959407   0.47302587   0.18138194
   69 1     1      0.00000     14.81033     14.62500      7.04317   #   C40   0.34572270   0.45705646   0.20628474
   70 1     1      0.00000     14.91930     14.78127      8.42830   #   C41   0.34849075   0.45890830   0.24685320
   71 1     1      0.00000     15.83617     14.88949      4.71245   #   C42   0.36916152   0.47101235   0.13802110
   72 1     1      0.00000     15.68539     15.83925     16.91261   #   C43   0.36774028   0.47351182   0.49534707
   73 1     1      0.00000     15.85234      1.74471      2.22390   #   C44   0.36844020   0.05132234   0.06513501
   74 1     1      0.00000     15.82886     12.31502      2.32968   #   C45   0.36846157   0.39320131   0.06823318
   75 1     3      0.00000     12.35825     14.74641      2.29541   #    N1   0.28801919   0.47197644   0.06722947
   76 1     4      0.00000      5.08801      1.69154      3.23933   #    N2   0.11873454   0.04725077   0.09487548
   77 1     3      0.00000     19.28835     14.76148      2.25806   #    N3   0.44888184   0.47255069   0.06613547
   78 1     5      0.00000     15.31145     15.17942     11.22425   #    N4   0.35807955   0.46532286   0.32874260
   79 1     5      0.00000     16.20907     15.54878     10.40097   #    N5   0.37879798   0.47918339   0.30463009
   80 1     6      0.00000      6.29908      3.23033      4.51474   #    O1   0.14713898   0.09410378   0.13223052
   81 1     6      0.00000      3.87695      3.68456      3.38899   #    O2   0.09075055   0.11141164   0.09925878
   82 1     6      0.00000     13.40047      7.02441      4.49583   #    O3   0.31217726   0.21694860   0.13167678
   83 1     8      0.00000     16.92505     14.67708      0.33198   #    O4   0.39369781   0.47427748   0.00972327
   84 1     7      0.00000     16.94565     14.83552      4.20958   #    O5   0.39482934   0.47042972   0.12329270
   85 1     7      0.00000     16.96535      1.24739      2.20006   #    O6   0.39424652   0.03528106   0.06443667
   86 1     7      0.00000     16.93992     12.81715      2.34150   #    O7   0.39428060   0.40942615   0.06857927
   87 1     7      0.00000     14.74125      1.24258      2.21208   #    O8   0.34262043   0.03509747   0.06478887
   88 1     7      0.00000     14.72156     14.83073      4.22160   #    O9   0.34320325   0.47024666   0.12364488
   89 1     7      0.00000     14.70095     14.67229      0.34399   #   O10   0.34207171   0.47409440   0.01007498
   90 1     7      0.00000     14.71582     12.81235      2.35351   #   O11   0.34265450   0.40924306   0.06893101
   91 1     10     0.00000     14.23306     15.97166     19.35619   #   Zn1   0.33444070   0.47214102   0.56691602
   92 1     9      0.00000     17.16340     15.97799     19.34035   #   Zn2   0.40246036   0.47238260   0.56645212
   93 1     2      0.00000      8.96345     16.29636     18.14874   #    H1   0.21193357   0.48544545   0.53155153
   94 1     2      0.00000      6.84440      1.89853     18.64216   #    H2   0.16207851   0.01829577   0.54600298
   95 1     2      0.00000      8.50808      3.58350     22.26049   #    H3   0.20138682   0.06445677   0.65197893
   96 1     2      0.00000     10.66759      2.54409     21.73881   #    H4   0.25137478   0.03202207   0.63669965
   97 1     2      0.00000      4.96294      1.94487     19.92039   #    H5   0.11861936   0.01683678   0.58344058
   98 1     2      0.00000      3.04693     16.47248     20.80852   #    H6   0.07504514   0.48498884   0.60945287
   99 1     2      0.00000      0.89331     15.37390     20.43491   #    H7   0.02493424   0.45029668   0.59851024
  100 1     2      0.00000     20.79798      3.63827     19.02704   #    H8   0.48613677   0.07371419   0.55727564
  101 1     2      0.00000      1.41780      4.74867     19.37279   #    H9   0.03638073   0.10885365   0.56740225
  102 1     2      0.00000     17.61680     11.03153     19.20425   #   H11   0.41270544   0.31259799   0.56246593
  103 1     2      0.00000     16.77706      8.87986     19.99321   #   H12   0.39323206   0.24112961   0.58557344
  104 1     2      0.00000     12.82465     10.56510     20.39989   #   H13   0.30164023   0.29473366   0.59748468
  105 1     2      0.00000     13.66647     12.72642     19.62957   #   H14   0.32116542   0.36647108   0.57492298
  106 1     2      0.00000     15.17559      7.62289     18.22908   #   H15   0.35569862   0.20452968   0.53390444
  107 1     2      0.00000     16.04580      5.47505     17.46305   #   H16   0.37565981   0.13678459   0.51146842
  108 1     2      0.00000     15.25245      3.76956     21.35156   #   H17   0.35780208   0.07258261   0.62535760
  109 1     2      0.00000     14.40057      5.92708     22.12144   #   H18   0.33826753   0.14063213   0.64790646
  110 1     2      0.00000     17.02568     16.54481     18.44856   #   H19   0.39914457   0.49279296   0.54033265
  111 1     2      0.00000     17.51336      2.33560     32.05739   #   H20   0.41199098   0.00138835   0.93891656
  112 1     2      0.00000     17.28595     17.50938     29.63642   #   H21   0.40709744   0.49811474   0.86800972
  113 1     2      0.00000     13.41327     15.68683     30.13599   #   H22   0.31718952   0.43796896   0.88264155
  114 1     2      0.00000     13.59587     15.95698     32.56738   #   H23   0.32184654   0.44108439   0.95385355
  115 1     2      0.00000     17.89164      2.03516     25.63225   #   H24   0.41968754   0.00653720   0.75073308
  116 1     2      0.00000     17.70948      1.76524     23.20123   #   H25   0.41504052   0.00342837   0.67953186
  117 1     2      0.00000     13.79191     15.38650     23.71025   #   H26   0.32489433   0.44312274   0.69444055
  118 1     2      0.00000     13.98440     15.66066     26.13170   #   H27   0.32977956   0.44639100   0.76536129
  119 1     2      0.00000     16.57158     16.44013     19.95907   #   H28   0.38884929   0.48590824   0.58457354
  120 1     1      0.00000     11.21326     16.45716     19.60998   #    C1   0.26440978   0.48726748   0.57434916
  121 1     1      0.00000      9.97914      1.61838     19.91235   #    C2   0.23504183   0.00628788   0.58320527
  122 1     1      0.00000      8.89155      1.43978     19.05032   #    C3   0.20964303   0.00250284   0.55795748
  123 1     1      0.00000      7.65845      2.03130     19.34218   #    C4   0.18109845   0.02097256   0.56650555
  124 1     1      0.00000      7.49600      2.80596     20.50620   #    C5   0.17756137   0.04335124   0.60059817
  125 1     1      0.00000      8.59979      2.98949     21.35956   #    C6   0.20333494   0.04731613   0.62559197
  126 1     1      0.00000      9.83132      2.39614     21.06595   #    C7   0.23184282   0.02879119   0.61699252
  127 1     1      0.00000      6.19603      3.44504     20.82526   #    C8   0.14747144   0.06329729   0.60994318
  128 1     1      0.00000      3.72985      3.65293     20.31002   #    C9   0.09014918   0.07121893   0.59485230
  129 1     1      0.00000      2.42988      2.97138     20.09622   #   C10   0.05990204   0.04965444   0.58859048
  130 1     1      0.00000      2.26743      1.60581     20.39667   #   C11   0.05611019   0.00476019   0.59739028
  131 1     1      0.00000      0.99977     16.42545     20.19629   #   C12   0.02742034   0.48488405   0.59152138
  132 1     1      0.00000     -0.05326      1.70422     19.69960   #   C13   0.00212932   0.00955898   0.57697390
  133 1     1      0.00000     20.18320     16.50377     19.49446   #   C14   0.47261163   0.48904354   0.57096565
  134 1     1      0.00000      0.09456      3.06479     19.40881   #   C15   0.00558287   0.05426896   0.56845708
  135 1     1      0.00000      1.32609      3.69576     19.60919   #   C16   0.03423651   0.07422718   0.57432616
  136 1     1      0.00000     15.70672     12.04691     19.34787   #   C17   0.36844351   0.34512976   0.56667241
  137 1     1      0.00000     16.56746     10.94206     19.45575   #   C18   0.38838433   0.30912002   0.56983211
  138 1     1      0.00000     16.08489      9.70698     19.89783   #   C19   0.37719184   0.26812130   0.58277986
  139 1     1      0.00000     14.72874      9.54824     20.23096   #   C20   0.34575890   0.26221237   0.59253684
  140 1     1      0.00000     13.87206     10.65715     20.13969   #   C21   0.32591514   0.29831532   0.58986362
  141 1     1      0.00000     14.35397     11.89250     19.69730   #   C22   0.33709223   0.33932338   0.57690674
  142 1     1      0.00000     14.20876      8.24743     20.71854   #   C23   0.33370209   0.21898091   0.60681730
  143 1     1      0.00000     14.74657      6.94898     20.24418   #   C24   0.34604002   0.17805274   0.59292391
  144 1     1      0.00000     15.20702      6.79430     18.92533   #   C25   0.35650101   0.17609927   0.55429666
  145 1     1      0.00000     15.69584      5.56139     18.48405   #   C26   0.36771040   0.13721572   0.54137217
  146 1     1      0.00000     15.72443      4.45468     19.34867   #   C27   0.36846052   0.09939408   0.56669588
  147 1     1      0.00000     15.24809      4.60500     20.66259   #   C28   0.35762951   0.10121779   0.60517875
  148 1     1      0.00000     14.75902      5.83818     21.10318   #   C29   0.34641423   0.14011158   0.61808306
  149 1     1      0.00000     15.55277     16.89208     32.50363   #   C30   0.36730995   0.47149799   0.95198637
  150 1     1      0.00000     16.58535     17.32424     31.65357   #   C31   0.39116018   0.48745319   0.92708911
  151 1     1      0.00000     16.47617     17.16786     30.26841   #   C32   0.38838724   0.48559817   0.88651987
  152 1     1      0.00000     15.33015     16.57555     29.71024   #   C33   0.36166125   0.46771920   0.87017172
  153 1     1      0.00000     14.30115     16.14465     30.55417   #   C34   0.33789310   0.45181903   0.89488940
  154 1     1      0.00000     14.40853     16.30017     31.93936   #   C35   0.34062414   0.45364609   0.93545961
  155 1     1      0.00000     15.94022     16.59451     26.05794   #   C36   0.37521623   0.47678709   0.76320094
  156 1     1      0.00000     16.96924     17.02541     25.21399   #   C37   0.39898475   0.49268757   0.73848274
  157 1     1      0.00000     16.86207     16.86998     23.82872   #   C38   0.39625837   0.49086360   0.69791020
  158 1     1      0.00000     15.71875     16.27851     23.26440   #   C39   0.36959407   0.47302587   0.68138194
  159 1     1      0.00000     14.68526     15.84592     24.11465   #   C40   0.34572270   0.45705646   0.70628474
  160 1     1      0.00000     14.79423     16.00220     25.49978   #   C41   0.34849075   0.45890830   0.74685320
  161 1     1      0.00000     15.71110     16.11042     21.78393   #   C42   0.36916152   0.47101235   0.63802110
  162 1     1      0.00000     15.56032     17.06018     33.98409   #   C43   0.36774028   0.47351182   0.99534707
  163 1     1      0.00000     15.72727      2.96564     19.29538   #   C44   0.36844020   0.05132234   0.56513501
  164 1     1      0.00000     15.70378     13.53594     19.40116   #   C45   0.36846157   0.39320131   0.56823318
  165 1     3      0.00000     12.23318     15.96734     19.36689   #    N1   0.28801919   0.47197644   0.56722947
  166 1     4      0.00000      4.96294      2.91247     20.31081   #    N2   0.11873454   0.04725077   0.59487548
  167 1     3      0.00000     19.16328     15.98241     19.32954   #    N3   0.44888184   0.47255069   0.56613547
  168 1     5      0.00000     15.18638     16.40035     28.29572   #    N4   0.35807955   0.46532286   0.82874260
  169 1     5      0.00000     16.08399     16.76971     27.47245   #    N5   0.37879798   0.47918339   0.80463009
  170 1     6      0.00000      6.17401      4.45126     21.58622   #    O1   0.14713898   0.09410378   0.63223052
  171 1     6      0.00000      3.75188      4.90549     20.46047   #    O2   0.09075055   0.11141164   0.59925878
  172 1     6      0.00000     13.27540      8.24534     21.56731   #    O3   0.31217726   0.21694860   0.63167678
  173 1     8      0.00000     16.79998     15.89801     17.40346   #    O4   0.39369781   0.47427748   0.50972327
  174 1     7      0.00000     16.82058     16.05645     21.28106   #    O5   0.39482934   0.47042972   0.62329270
  175 1     7      0.00000     16.84027      2.46832     19.27154   #    O6   0.39424652   0.03528106   0.56443667
  176 1     7      0.00000     16.81484     14.03807     19.41298   #    O7   0.39428060   0.40942615   0.56857927
  177 1     7      0.00000     14.61618      2.46351     19.28356   #    O8   0.34262043   0.03509747   0.56478887
  178 1     7      0.00000     14.59648     16.05166     21.29308   #    O9   0.34320325   0.47024666   0.62364488
  179 1     7      0.00000     14.57588     15.89321     17.41547   #   O10   0.34207171   0.47409440   0.51007498
  180 1     7      0.00000     14.59075     14.03328     19.42499   #   O11   0.34265450   0.40924306   0.56893101
  181 1     10     0.00000     14.32357     30.19880      2.28471   #   Zn1   0.33444070   0.97214102   0.06691602
  182 1     9      0.00000     17.25391     30.20513      2.26887   #   Zn2   0.40246036   0.97238260   0.06645212
  183 1     2      0.00000      9.05396     30.52350      1.07726   #    H1   0.21193357   0.98544545   0.03155153
  184 1     2      0.00000      6.93491     16.12567      1.57068   #    H2   0.16207851   0.51829577   0.04600298
  185 1     2      0.00000      8.59859     17.81064      5.18901   #    H3   0.20138682   0.56445677   0.15197893
  186 1     2      0.00000     10.75811     16.77123      4.66733   #    H4   0.25137478   0.53202207   0.13669965
  187 1     2      0.00000      5.05345     16.17201      2.84891   #    H5   0.11861936   0.51683678   0.08344058
  188 1     2      0.00000      3.13744     30.69961      3.73704   #    H6   0.07504514   0.98498884   0.10945287
  189 1     2      0.00000      0.98382     29.60104      3.36343   #    H7   0.02493424   0.95029668   0.09851024
  190 1     2      0.00000     20.88850     17.86541      1.95556   #    H8   0.48613677   0.57371419   0.05727564
  191 1     2      0.00000      1.50831     18.97581      2.30131   #    H9   0.03638073   0.60885365   0.06740225
  192 1     2      0.00000     17.70731     25.25867      2.13277   #   H11   0.41270544   0.81259799   0.06246593
  193 1     2      0.00000     16.86757     23.10700      2.92173   #   H12   0.39323206   0.74112961   0.08557344
  194 1     2      0.00000     12.91516     24.79224      3.32842   #   H13   0.30164023   0.79473366   0.09748468
  195 1     2      0.00000     13.75698     26.95356      2.55809   #   H14   0.32116542   0.86647108   0.07492298
  196 1     2      0.00000     15.26610     21.85003      1.15760   #   H15   0.35569862   0.70452968   0.03390444
  197 1     2      0.00000     16.13631     19.70219      0.39157   #   H16   0.37565981   0.63678459   0.01146842
  198 1     2      0.00000     15.34296     17.99669      4.28008   #   H17   0.35780208   0.57258261   0.12535760
  199 1     2      0.00000     14.49108     20.15422      5.04996   #   H18   0.33826753   0.64063213   0.14790646
  200 1     2      0.00000     17.11620     30.77195      1.37708   #   H19   0.39914457   0.99279296   0.04033265
  201 1     2      0.00000     17.60387     16.56273     14.98591   #   H20   0.41199098   0.50138835   0.43891656
  202 1     2      0.00000     17.37647     31.73651     12.56494   #   H21   0.40709744   0.99811474   0.36800972
  203 1     2      0.00000     13.50378     29.91397     13.06451   #   H22   0.31718952   0.93796896   0.38264155
  204 1     2      0.00000     13.68638     30.18411     15.49590   #   H23   0.32184654   0.94108439   0.45385355
  205 1     2      0.00000     17.98215     16.26230      8.56077   #   H24   0.41968754   0.50653720   0.25073308
  206 1     2      0.00000     17.79999     15.99238      6.12975   #   H25   0.41504052   0.50342837   0.17953186