Created by Ryther's code on 2025-07-25 17:28:33.561192, modified by xyan11@uic.edu. 

    464 atoms
    552 bonds
    1088 angles
    1008 dihedrals
    192 impropers

    9 atom types
    14 bond types
    32 angle types
    8 dihedral types
    2 improper types

0.00000000 28.94912415 xlo xhi
0.00000000 30.88910487 ylo yhi
0.00000000 21.17391908 zlo zhi
-0.00877786 -0.03415819 1.65720159 xy xz yz 

Masses 

    1     32.065  #   S
    2    15.9994  #   O
    3    15.9994  #   O
    4    15.9994  #   O
    5    14.0067  #   N
    6    14.0067  #   N
    7    1.00794  #   H
    8      65.38  #  Zn
    9    12.0107  #   C

Pair Coeffs

    1       0.27400      3.59478  #  S_3 S_3
    2       0.06000      3.11815  #  O_2_M O_2_M
    3       0.06000      3.11815  #  O_3_M O_3_M
    4       0.06000      3.11815  #  O_3 O_3
    5       0.06900      3.26069  #  N_R N_R
    6       0.06900      3.26069  #  N_2 N_2
    7       0.04400      2.57113  #  H_ H_
    8       0.12400      2.46155  #  Zn3+2 Zn3+2
    9       0.10500      3.43085  #  C_R C_R

Bond Coeffs

    1     126.84659      1.98971  #  O_3_M Zn3+2 bond order=0.5
    2      83.70832      1.54605  #  H_ Zn3+2 bond order=1.0
    3     131.87166      1.96411  #  O_2_M Zn3+2 bond order=0.5
    4     169.60151      1.86783  #  N_2 Zn3+2 bond order=1.0
    5     357.44038      1.08142  #  C_R H_ bond order=1.0
    6     559.94651      0.99025  #  H_ O_3_M bond order=1.0
    7     462.65505      1.37926  #  C_R C_R bond order=1.5
    8     931.53598      1.20133  #  C_R N_2 bond order=3.0
    9     301.29678      1.78592  #  C_R S_3 bond order=1.0
    10    391.66951      1.45800  #  C_R C_R bond order=1.0
    11    572.46041      1.36631  #  C_R O_3 bond order=1.0
    12    663.66675      1.34507  #  C_R N_R bond order=1.5
    13    677.96894      1.29140  #  C_R O_3_M bond order=1.5
    14    714.49531      1.26901  #  C_R O_2_M bond order=1.5

Angle Coeffs

    1  fourier                 58.51091      0.34375      0.37500      0.28125  #  H_ Zn3+2 O_3_M
    2  fourier                139.19354      0.34375      0.37500      0.28125  #  O_2_M Zn3+2 O_3_M
    3  fourier                136.53506      0.34375      0.37500      0.28125  #  O_3_M Zn3+2 O_3_M
    4  fourier                165.48270      0.34375      0.37500      0.28125  #  N_2 Zn3+2 O_3_M
    5  fourier                 59.97536      0.34375      0.37500      0.28125  #  H_ Zn3+2 O_2_M
    6  fourier                 27.89484      0.34375      0.37500      0.28125  #  H_ Zn3+2 H_
    7  fourier                 72.83028      0.34375      0.37500      0.28125  #  H_ Zn3+2 N_2
    8  fourier                141.94394      0.34375      0.37500      0.28125  #  O_2_M Zn3+2 O_2_M
    9  fourier                168.93786      0.34375      0.37500      0.28125  #  N_2 Zn3+2 O_2_M
    10 cosine/periodic         61.24131            1            1  #  O_3_M H_ Zn3+2
    11 cosine/periodic        179.74893           -1            3  #  C_R C_R N_2
    12 cosine/periodic        101.95051           -1            3  #  C_R C_R S_3
    13 cosine/periodic        111.29751           -1            3  #  C_R C_R C_R
    14 cosine/periodic         57.28902           -1            3  #  C_R C_R H_
    15 cosine/periodic        102.18328           -1            3  #  C_R C_R C_R
    16 cosine/periodic        135.76992           -1            3  #  C_R C_R O_3
    17 cosine/periodic        102.18328           -1            3  #  C_R C_R C_R
    18 cosine/periodic        140.82706           -1            3  #  C_R C_R N_R
    19 cosine/periodic        153.68727           -1            3  #  C_R C_R N_R
    20 cosine/periodic         79.78069           -1            3  #  H_ C_R N_R
    21 cosine/periodic        134.56278           -1            3  #  C_R C_R O_3_M
    22 cosine/periodic        137.70227           -1            3  #  C_R C_R O_2_M
    23 cosine/periodic        201.34548           -1            3  #  O_2_M C_R O_3_M
    24 cosine/periodic        206.74247           -1            3  #  O_2_M C_R O_2_M
    25 fourier                211.54307      0.25101      0.03669      0.25034  #  C_R S_3 C_R
    26 fourier                123.90958      0.36401      0.41847      0.28800  #  C_R N_2 Zn3+2
    27 cosine/periodic        120.00052           -1            3  #  C_R N_R C_R
    28 fourier                330.82111      0.30023      0.26733      0.26675  #  C_R O_3 C_R
    29 cosine/periodic         44.54794           -1            3  #  C_R O_2_M Zn3+2
    30 fourier                 50.82090      0.30023      0.26733      0.26675  #  H_ O_3_M Zn3+2
    31 fourier                118.37950      0.30023      0.26733      0.26675  #  C_R O_3_M Zn3+2
    32 fourier                203.65891      0.30023      0.26733      0.26675  #  C_R O_3_M H_

Dihedral Coeffs

    1       6.73711           -1            2  #  X C_R C_R X bond order=1.5
    2      27.96100           -1            2  #  X C_R N_2 X bond order=3.0
    3       1.22984           -1            2  #  X C_R S_3 X bond order=1.0
    4       1.25000           -1            2  #  X C_R C_R X bond order=1.0
    5       0.23717           -1            2  #  X C_R O_3 X bond order=1.0
    6       6.73711           -1            2  #  X C_R N_R X bond order=1.5
    7       0.31957           -1            2  #  X C_R O_3_M X bond order=1.5
    8       6.73711           -1            2  #  X C_R O_2_M X bond order=1.5

Improper Coeffs

    1       2.00000      1.00000     -1.00000      0.00000            1  #  C_R X X X O_2 present=False
    2      16.66667      1.00000     -1.00000      0.00000            1  #  C_R X X X O_2 present=True

Atoms # a, b, c, alpha, beta, gamma: 28.9491241474, 30.8891061202, 21.2386989506, 85.5247812525, 90.0921488174, 90.0162819332 $$$atoms$$$

    1 1     8      0.00000      0.08335     15.14279      6.45395   #   Zn1   0.00338267   0.47387783   0.30480651
    2 1     8      0.00000      3.01375     15.14275      6.45390   #   Zn2   0.10460836   0.47387661   0.30480438
    3 1     7      0.00000     10.08051     12.54207      5.57077   #    H1   0.34864380   0.39192036   0.26309592
    4 1     7      0.00000      7.49116     12.54207      5.57076   #    H2   0.25919912   0.39192046   0.26309560
    5 1     7      0.00000      3.89873     13.64531      6.95447   #    H3   0.13519138   0.42413043   0.32844511
    6 1     7      0.00000      3.19028     10.24920      7.49416   #    H4   0.11071536   0.31281768   0.35393371
    7 1     7      0.00000      2.12809      8.04860      7.57067   #    H5   0.07400649   0.24138209   0.35754671
    8 1     7      0.00000     13.26566      5.22090      7.65895   #    H6   0.45871253   0.14961471   0.36171637
    9 1     7      0.00000     14.31465      3.00256      7.62618   #    H7   0.49492458   0.07788137   0.36016842
   10 1     7      0.00000      2.00146     15.74022      7.06837   #    H8   0.06968026   0.49166207   0.33382419
   11 1     7      0.00000      3.08878      4.59414      5.26266   #    H9   0.10703129   0.13539558   0.24854436
   12 1     7      0.00000      2.02087      6.79363      5.28692   #   H10   0.07016493   0.20654015   0.24969025
   13 1     7      0.00000     13.16062      9.61626      5.51487   #   H11   0.45500934   0.29734204   0.26045564
   14 1     7      0.00000     14.20510     11.83645      5.44863   #   H12   0.49110747   0.36938606   0.25732735
   15 1     7      0.00000      0.35544     14.98677      5.73135   #   H13   0.01274005   0.47065786   0.27067989
   16 1     7      0.00000     13.87270     14.64055      2.33069   #   H14   0.47948151   0.46806603   0.11007341
   17 1     7      0.00000      0.29635     15.09880      7.22304   #   H15   0.01078219   0.47050498   0.34112931
   18 1     7      0.00000      3.69996     15.64508     10.57744   #   H16   0.12854395   0.47969106   0.49955031
   19 1     9      0.00000     11.42849     14.90474      6.37303   #    C1   0.39527496   0.46637633   0.30098501
   20 1     9      0.00000     10.02672     14.60931      6.27272   #    C2   0.34684487   0.45706624   0.29624730
   21 1     9      0.00000      9.48579     13.39841      5.86155   #    C3   0.32812486   0.41890649   0.27682854
   22 1     9      0.00000      8.08587     13.39841      5.86154   #    C4   0.27976682   0.41890653   0.27682839
   23 1     9      0.00000      7.54494     14.60931      6.27271   #    C5   0.26111578   0.45706629   0.29624707
   24 1     9      0.00000      6.14318     14.90474      6.37303   #    C6   0.21270250   0.46637641   0.30098489
   25 1     9      0.00000      1.54850     11.21484      6.45691   #    C7   0.05395535   0.34670749   0.30494661
   26 1     9      0.00000      2.21073     10.12604      7.04955   #    C8   0.07685286   0.30995713   0.33293562
   27 1     9      0.00000      1.61026      8.86405      7.08305   #    C9   0.05609999   0.26901669   0.33451775
   28 1     9      0.00000      0.34095      8.66658      6.51282   #   C10   0.01222057   0.26406875   0.30758668
   29 1     9      0.00000      0.34271      6.17300      6.50902   #   C11   0.01225667   0.18335153   0.30740764
   30 1     9      0.00000     14.20685      5.08531      7.14130   #   C12   0.49119487   0.14653671   0.33726857
   31 1     9      0.00000      0.33288      3.82305      7.11995   #   C13   0.01192763   0.10572657   0.33626022
   32 1     9      0.00000      1.55312      3.62615      6.45094   #   C14   0.05404009   0.10104716   0.30466456
   33 1     9      0.00000      2.15537      4.71637      5.79785   #   C15   0.07481880   0.13799675   0.27382040
   34 1     9      0.00000      1.55267      5.97747      5.82128   #   C16   0.05401311   0.17876397   0.27492690
   35 1     9      0.00000     14.14635      9.75325      5.94121   #   C17   0.48908463   0.30069695   0.28059073
   36 1     9      0.00000      0.26991     11.01631      5.90585   #   C18   0.00975617   0.34167666   0.27892104
   37 1     9      0.00000      1.54861     14.83576      2.53801   #   C19   0.05377918   0.47386028   0.11986510
   38 1     9      0.00000      0.35297     14.68021      1.82295   #   C20   0.01243699   0.47063617   0.08609416
   39 1     9      0.00000      1.54862     15.44978     10.36984   #   C21   0.05421625   0.47389436   0.48974607
   40 1     9      0.00000      2.76217     14.77684      0.49834   #   C22   0.09558706   0.47712090   0.02353538
   41 1     9      0.00000      1.54859     15.28043      8.88950   #   C23   0.05413204   0.47216270   0.41983257
   42 1     9      0.00000      1.54855     15.00512      4.01835   #   C24   0.05386009   0.47559228   0.18977838
   43 1     9      0.00000      1.55301      2.13706      6.39893   #   C25   0.05401874   0.05297132   0.30220825
   44 1     9      0.00000      1.54852     12.70393      6.50892   #   C26   0.05397336   0.39478315   0.30740274
   45 1     1      0.00000      8.78583     15.68362      6.63750   #    S1   0.30401091   0.49092147   0.31347549
   46 1     6      0.00000     12.55801     15.14282      6.45387   #    N1   0.43429902   0.47387898   0.30480289
   47 1     6      0.00000      5.01366     15.14282      6.45387   #    N2   0.17369200   0.47387901   0.30480284
   48 1     5      0.00000      0.39185     14.57727      0.46874   #    N3   0.01370470   0.47073498   0.02213756
   49 1     5      0.00000      2.72321     14.87976      1.85250   #    N4   0.09431663   0.47702181   0.08748980
   50 1     4      0.00000     14.17427      7.41929      6.54136   #    O1   0.49005910   0.22361685   0.30893475
   51 1     2      0.00000      2.66059     15.06189      4.51515   #    O2   0.09230186   0.47617121   0.21324111
   52 1     2      0.00000      2.66064     15.22362      8.39266   #    O3   0.09251822   0.47158253   0.39636804
   53 1     2      0.00000      2.66504      1.63730      6.38151   #    O4   0.09242621   0.03683651   0.30138557
   54 1     2      0.00000      2.66059     13.20365      6.52630   #    O5   0.09239384   0.41091723   0.30822354
   55 1     2      0.00000      0.44091      1.63733      6.38155   #    O6   0.01559715   0.03683721   0.30138735
   56 1     3      0.00000      0.43651     15.22366      8.39270   #    O7   0.01568916   0.47158375   0.39636979
   57 1     3      0.00000      0.43646     15.06192      4.51517   #    O8   0.01547280   0.47617241   0.21324211
   58 1     2      0.00000      0.43645     13.20369      6.52632   #    O9   0.01556478   0.41091843   0.30822458
   59 1     8      0.00000      0.06628     15.97139     17.04091   #   Zn1   0.00338267   0.47387783   0.80480651
   60 1     8      0.00000      2.99667     15.97135     17.04086   #   Zn2   0.10460836   0.47387661   0.80480438
   61 1     7      0.00000     10.06343     13.37067     16.15773   #    H1   0.34864380   0.39192036   0.76309592
   62 1     7      0.00000      7.47408     13.37068     16.15772   #    H2   0.25919912   0.39192046   0.76309560
   63 1     7      0.00000      3.88165     14.47391     17.54143   #    H3   0.13519138   0.42413043   0.82844511
   64 1     7      0.00000      3.17320     11.07780     18.08112   #    H4   0.11071536   0.31281768   0.85393371
   65 1     7      0.00000      2.11101      8.87720     18.15762   #    H5   0.07400649   0.24138209   0.85754671
   66 1     7      0.00000     13.24858      6.04950     18.24591   #    H6   0.45871253   0.14961471   0.86171637
   67 1     7      0.00000     14.29757      3.83116     18.21314   #    H7   0.49492458   0.07788137   0.86016842
   68 1     7      0.00000      1.98438     16.56882     17.65533   #    H8   0.06968026   0.49166207   0.83382419
   69 1     7      0.00000      3.07170      5.42274     15.84962   #    H9   0.10703129   0.13539558   0.74854436
   70 1     7      0.00000      2.00379      7.62223     15.87388   #   H10   0.07016493   0.20654015   0.74969025
   71 1     7      0.00000     13.14354     10.44486     16.10183   #   H11   0.45500934   0.29734204   0.76045564
   72 1     7      0.00000     14.18802     12.66505     16.03559   #   H12   0.49110747   0.36938606   0.75732735
   73 1     7      0.00000      0.33836     15.81537     16.31831   #   H13   0.01274005   0.47065786   0.77067989
   74 1     7      0.00000     13.85562     15.46916     12.91764   #   H14   0.47948151   0.46806603   0.61007341
   75 1     7      0.00000      0.27927     15.92740     17.81000   #   H15   0.01078219   0.47050498   0.84112931
   76 1     7      0.00000      3.68288     16.47368     21.16440   #   H16   0.12854395   0.47969106   0.99955031
   77 1     9      0.00000     11.41141     15.73334     16.95999   #    C1   0.39527496   0.46637633   0.80098501
   78 1     9      0.00000     10.00964     15.43791     16.85968   #    C2   0.34684487   0.45706624   0.79624730
   79 1     9      0.00000      9.46872     14.22701     16.44850   #    C3   0.32812486   0.41890649   0.77682854
   80 1     9      0.00000      8.06879     14.22701     16.44850   #    C4   0.27976682   0.41890653   0.77682839
   81 1     9      0.00000      7.52786     15.43791     16.85967   #    C5   0.26111578   0.45706629   0.79624707
   82 1     9      0.00000      6.12610     15.73334     16.95999   #    C6   0.21270250   0.46637641   0.80098489
   83 1     9      0.00000      1.53142     12.04344     17.04387   #    C7   0.05395535   0.34670749   0.80494661
   84 1     9      0.00000      2.19365     10.95464     17.63651   #    C8   0.07685286   0.30995713   0.83293562
   85 1     9      0.00000      1.59318      9.69265     17.67001   #    C9   0.05609999   0.26901669   0.83451775
   86 1     9      0.00000      0.32387      9.49518     17.09978   #   C10   0.01222057   0.26406875   0.80758668
   87 1     9      0.00000      0.32563      7.00160     17.09598   #   C11   0.01225667   0.18335153   0.80740764
   88 1     9      0.00000     14.18978      5.91391     17.72826   #   C12   0.49119487   0.14653671   0.83726857
   89 1     9      0.00000      0.31580      4.65165     17.70691   #   C13   0.01192763   0.10572657   0.83626022
   90 1     9      0.00000      1.53604      4.45475     17.03790   #   C14   0.05404009   0.10104716   0.80466456
   91 1     9      0.00000      2.13830      5.54497     16.38481   #   C15   0.07481880   0.13799675   0.77382040
   92 1     9      0.00000      1.53559      6.80607     16.40824   #   C16   0.05401311   0.17876397   0.77492690
   93 1     9      0.00000     14.12927     10.58186     16.52816   #   C17   0.48908463   0.30069695   0.78059073
   94 1     9      0.00000      0.25283     11.84492     16.49281   #   C18   0.00975617   0.34167666   0.77892104
   95 1     9      0.00000      1.53153     15.66436     13.12497   #   C19   0.05377918   0.47386028   0.61986510
   96 1     9      0.00000      0.33589     15.50881     12.40991   #   C20   0.01243699   0.47063617   0.58609416
   97 1     9      0.00000      1.53155     16.27838     20.95680   #   C21   0.05421625   0.47389436   0.98974607
   98 1     9      0.00000      2.74509     15.60544     11.08530   #   C22   0.09558706   0.47712090   0.52353538
   99 1     9      0.00000      1.53151     16.10903     19.47646   #   C23   0.05413204   0.47216270   0.91983257
  100 1     9      0.00000      1.53147     15.83372     14.60531   #   C24   0.05386009   0.47559228   0.68977838
  101 1     9      0.00000      1.53593      2.96566     16.98589   #   C25   0.05401874   0.05297132   0.80220825
  102 1     9      0.00000      1.53144     13.53253     17.09588   #   C26   0.05397336   0.39478315   0.80740274
  103 1     1      0.00000      8.76875     16.51222     17.22446   #    S1   0.30401091   0.49092147   0.81347549
  104 1     6      0.00000     12.54093     15.97142     17.04083   #    N1   0.43429902   0.47387898   0.80480289
  105 1     6      0.00000      4.99658     15.97142     17.04083   #    N2   0.17369200   0.47387901   0.80480284
  106 1     5      0.00000      0.37477     15.40587     11.05570   #    N3   0.01370470   0.47073498   0.52213756
  107 1     5      0.00000      2.70613     15.70837     12.43946   #    N4   0.09431663   0.47702181   0.58748980
  108 1     4      0.00000     14.15719      8.24789     17.12832   #    O1   0.49005910   0.22361685   0.80893475
  109 1     2      0.00000      2.64352     15.89049     15.10211   #    O2   0.09230186   0.47617121   0.71324111
  110 1     2      0.00000      2.64356     16.05222     18.97962   #    O3   0.09251822   0.47158253   0.89636804
  111 1     2      0.00000      2.64796      2.46590     16.96847   #    O4   0.09242621   0.03683651   0.80138557
  112 1     2      0.00000      2.64351     14.03225     17.11326   #    O5   0.09239384   0.41091723   0.80822354
  113 1     2      0.00000      0.42383      2.46593     16.96851   #    O6   0.01559715   0.03683721   0.80138735
  114 1     3      0.00000      0.41943     16.05227     18.97966   #    O7   0.01568916   0.47158375   0.89636979
  115 1     3      0.00000      0.41938     15.89053     15.10213   #    O8   0.01547280   0.47617241   0.71324211
  116 1     2      0.00000      0.41937     14.03229     17.11328   #    O9   0.01556478   0.41091843   0.80822458
  117 1     8      0.00000      0.07897     30.58734      6.45395   #   Zn1   0.00338267   0.97387783   0.30480651
  118 1     8      0.00000      3.00936     30.58730      6.45390   #   Zn2   0.10460836   0.97387661   0.30480438
  119 1     7      0.00000     10.07612     27.98662      5.57077   #    H1   0.34864380   0.89192036   0.26309592
  120 1     7      0.00000      7.48677     27.98663      5.57076   #    H2   0.25919912   0.89192046   0.26309560
  121 1     7      0.00000      3.89434     29.08986      6.95447   #    H3   0.13519138   0.92413043   0.32844511
  122 1     7      0.00000      3.18589     25.69375      7.49416   #    H4   0.11071536   0.81281768   0.35393371
  123 1     7      0.00000      2.12370     23.49316      7.57067   #    H5   0.07400649   0.74138209   0.35754671
  124 1     7      0.00000     13.26127     20.66545      7.65895   #    H6   0.45871253   0.64961471   0.36171637
  125 1     7      0.00000     14.31026     18.44711      7.62618   #    H7   0.49492458   0.57788137   0.36016842
  126 1     7      0.00000      1.99707     31.18477      7.06837   #    H8   0.06968026   0.99166207   0.33382419
  127 1     7      0.00000      3.08439     20.03869      5.26266   #    H9   0.10703129   0.63539558   0.24854436
  128 1     7      0.00000      2.01648     22.23818      5.28692   #   H10   0.07016493   0.70654015   0.24969025
  129 1     7      0.00000     13.15623     25.06081      5.51487   #   H11   0.45500934   0.79734204   0.26045564
  130 1     7      0.00000     14.20071     27.28100      5.44863   #   H12   0.49110747   0.86938606   0.25732735
  131 1     7      0.00000      0.35105     30.43132      5.73135   #   H13   0.01274005   0.97065786   0.27067989
  132 1     7      0.00000     13.86831     30.08511      2.33069   #   H14   0.47948151   0.96806603   0.11007341
  133 1     7      0.00000      0.29196     30.54335      7.22304   #   H15   0.01078219   0.97050498   0.34112931
  134 1     7      0.00000      3.69557     31.08964     10.57744   #   H16   0.12854395   0.97969106   0.49955031
  135 1     9      0.00000     11.42410     30.34929      6.37303   #    C1   0.39527496   0.96637633   0.30098501
  136 1     9      0.00000     10.02233     30.05386      6.27272   #    C2   0.34684487   0.95706624   0.29624730
  137 1     9      0.00000      9.48141     28.84296      5.86155   #    C3   0.32812486   0.91890649   0.27682854
  138 1     9      0.00000      8.08148     28.84296      5.86154   #    C4   0.27976682   0.91890653   0.27682839
  139 1     9      0.00000      7.54055     30.05386      6.27271   #    C5   0.26111578   0.95706629   0.29624707
  140 1     9      0.00000      6.13879     30.34929      6.37303   #    C6   0.21270250   0.96637641   0.30098489
  141 1     9      0.00000      1.54411     26.65939      6.45691   #    C7   0.05395535   0.84670749   0.30494661
  142 1     9      0.00000      2.20634     25.57059      7.04955   #    C8   0.07685286   0.80995713   0.33293562
  143 1     9      0.00000      1.60587     24.30860      7.08305   #    C9   0.05609999   0.76901669   0.33451775
  144 1     9      0.00000      0.33656     24.11113      6.51282   #   C10   0.01222057   0.76406875   0.30758668
  145 1     9      0.00000      0.33832     21.61755      6.50902   #   C11   0.01225667   0.68335153   0.30740764
  146 1     9      0.00000     14.20247     20.52986      7.14130   #   C12   0.49119487   0.64653671   0.33726857
  147 1     9      0.00000      0.32849     19.26760      7.11995   #   C13   0.01192763   0.60572657   0.33626022
  148 1     9      0.00000      1.54873     19.07070      6.45094   #   C14   0.05404009   0.60104716   0.30466456
  149 1     9      0.00000      2.15099     20.16092      5.79785   #   C15   0.07481880   0.63799675   0.27382040
  150 1     9      0.00000      1.54828     21.42202      5.82128   #   C16   0.05401311   0.67876397   0.27492690
  151 1     9      0.00000     14.14196     25.19781      5.94121   #   C17   0.48908463   0.80069695   0.28059073
  152 1     9      0.00000      0.26552     26.46087      5.90585   #   C18   0.00975617   0.84167666   0.27892104
  153 1     9      0.00000      1.54422     30.28031      2.53801   #   C19   0.05377918   0.97386028   0.11986510
  154 1     9      0.00000      0.34858     30.12476      1.82295   #   C20   0.01243699   0.97063617   0.08609416
  155 1     9      0.00000      1.54424     30.89433     10.36984   #   C21   0.05421625   0.97389436   0.48974607
  156 1     9      0.00000      2.75778     30.22139      0.49834   #   C22   0.09558706   0.97712090   0.02353538
  157 1     9      0.00000      1.54420     30.72498      8.88950   #   C23   0.05413204   0.97216270   0.41983257
  158 1     9      0.00000      1.54416     30.44967      4.01835   #   C24   0.05386009   0.97559228   0.18977838
  159 1     9      0.00000      1.54862     17.58161      6.39893   #   C25   0.05401874   0.55297132   0.30220825
  160 1     9      0.00000      1.54413     28.14848      6.50892   #   C26   0.05397336   0.89478315   0.30740274
  161 1     1      0.00000      8.78144     31.12817      6.63750   #    S1   0.30401091   0.99092147   0.31347549
  162 1     6      0.00000     12.55362     30.58737      6.45387   #    N1   0.43429902   0.97387898   0.30480289
  163 1     6      0.00000      5.00927     30.58737      6.45387   #    N2   0.17369200   0.97387901   0.30480284
  164 1     5      0.00000      0.38746     30.02182      0.46874   #    N3   0.01370470   0.97073498   0.02213756
  165 1     5      0.00000      2.71882     30.32432      1.85250   #    N4   0.09431663   0.97702181   0.08748980
  166 1     4      0.00000     14.16988     22.86384      6.54136   #    O1   0.49005910   0.72361685   0.30893475
  167 1     2      0.00000      2.65621     30.50644      4.51515   #    O2   0.09230186   0.97617121   0.21324111
  168 1     2      0.00000      2.65625     30.66818      8.39266   #    O3   0.09251822   0.97158253   0.39636804
  169 1     2      0.00000      2.66065     17.08186      6.38151   #    O4   0.09242621   0.53683651   0.30138557
  170 1     2      0.00000      2.65620     28.64821      6.52630   #    O5   0.09239384   0.91091723   0.30822354
  171 1     2      0.00000      0.43652     17.08188      6.38155   #    O6   0.01559715   0.53683721   0.30138735
  172 1     3      0.00000      0.43212     30.66822      8.39270   #    O7   0.01568916   0.97158375   0.39636979
  173 1     3      0.00000      0.43207     30.50648      4.51517   #    O8   0.01547280   0.97617241   0.21324211
  174 1     2      0.00000      0.43206     28.64825      6.52632   #    O9   0.01556478   0.91091843   0.30822458
  175 1     8      0.00000      0.06189     31.41594     17.04091   #   Zn1   0.00338267   0.97387783   0.80480651
  176 1     8      0.00000      2.99228     31.41590     17.04086   #   Zn2   0.10460836   0.97387661   0.80480438
  177 1     7      0.00000     10.05904     28.81523     16.15773   #    H1   0.34864380   0.89192036   0.76309592
  178 1     7      0.00000      7.46969     28.81523     16.15772   #    H2   0.25919912   0.89192046   0.76309560
  179 1     7      0.00000      3.87726     29.91846     17.54143   #    H3   0.13519138   0.92413043   0.82844511
  180 1     7      0.00000      3.16881     26.52235     18.08112   #    H4   0.11071536   0.81281768   0.85393371
  181 1     7      0.00000      2.10662     24.32176     18.15762   #    H5   0.07400649   0.74138209   0.85754671
  182 1     7      0.00000     13.24419     21.49405     18.24591   #    H6   0.45871253   0.64961471   0.86171637
  183 1     7      0.00000     14.29318     19.27571     18.21314   #    H7   0.49492458   0.57788137   0.86016842
  184 1     7      0.00000      1.98000     32.01337     17.65533   #    H8   0.06968026   0.99166207   0.83382419
  185 1     7      0.00000      3.06732     20.86729     15.84962   #    H9   0.10703129   0.63539558   0.74854436
  186 1     7      0.00000      1.99940     23.06678     15.87388   #   H10   0.07016493   0.70654015   0.74969025
  187 1     7      0.00000     13.13915     25.88941     16.10183   #   H11   0.45500934   0.79734204   0.76045564
  188 1     7      0.00000     14.18363     28.10960     16.03559   #   H12   0.49110747   0.86938606   0.75732735
  189 1     7      0.00000      0.33397     31.25992     16.31831   #   H13   0.01274005   0.97065786   0.77067989
  190 1     7      0.00000     13.85123     30.91371     12.91764   #   H14   0.47948151   0.96806603   0.61007341
  191 1     7      0.00000      0.27488     31.37195     17.81000   #   H15   0.01078219   0.97050498   0.84112931
  192 1     7      0.00000      3.67849     31.91824     21.16440   #   H16   0.12854395   0.97969106   0.99955031
  193 1     9      0.00000     11.40702     31.17789     16.95999   #    C1   0.39527496   0.96637633   0.80098501
  194 1     9      0.00000     10.00526     30.88246     16.85968   #    C2   0.34684487   0.95706624   0.79624730
  195 1     9      0.00000      9.46433     29.67156     16.44850   #    C3   0.32812486   0.91890649   0.77682854
  196 1     9      0.00000      8.06440     29.67156     16.44850   #    C4   0.27976682   0.91890653   0.77682839
  197 1     9      0.00000      7.52347     30.88246     16.85967   #    C5   0.26111578   0.95706629   0.79624707
  198 1     9      0.00000      6.12171     31.17790     16.95999   #    C6   0.21270250   0.96637641   0.80098489
  199 1     9      0.00000      1.52703     27.48800     17.04387   #    C7   0.05395535   0.84670749   0.80494661
  200 1     9      0.00000      2.18926     26.39919     17.63651   #    C8   0.07685286   0.80995713   0.83293562
  201 1     9      0.00000      1.58879     25.13720     17.67001   #    C9   0.05609999   0.76901669   0.83451775
  202 1     9      0.00000      0.31948     24.93973     17.09978   #   C10   0.01222057   0.76406875   0.80758668
  203 1     9      0.00000      0.32124     22.44615     17.09598   #   C11   0.01225667   0.68335153   0.80740764
  204 1     9      0.00000     14.18539     21.35846     17.72826   #   C12   0.49119487   0.64653671   0.83726857
  205 1     9      0.00000      0.31141     20.09620     17.70691   #   C13   0.01192763   0.60572657   0.83626022
  206 1     9      0.00000      1.53165     19.89930     17.03790   #   C14   0.05404009   0.60104716   0.80466456
  207 1     9      0.00000      2.13391     20.98952     16.38481   #   C15   0.07481880   0.63799675   0.77382040
  208 1     9      0.00000      1.53120     22.25062     16.40824   #   C16   0.05401311   0.67876397   0.77492690
  209 1     9      0.00000     14.12488     26.02641     16.52816   #   C17   0.48908463   0.80069695   0.78059073
  210 1     9      0.00000      0.24844     27.28947     16.49281   #   C18   0.00975617   0.84167666   0.77892104