Created by Ryther's code on 2025-07-31 16:51:45.349500, modified by xyan11@uic.edu. 

    1216 atoms
    1408 bonds
    2400 angles
    3104 dihedrals
    608 impropers

    7 atom types
    11 bond types
    20 angle types
    7 dihedral types
    3 improper types

0.00000000 19.4988 xlo xhi
0.00000000 20.90570879 ylo yhi
0.00000000 40.969 zlo zhi
-7.15680866 0.0 0.0 xy xz yz 

Masses 

    1    12.0107  #   C
    2    167.259  #  Er
    3    1.00794  #   H
    4    14.0067  #   N
    5    15.9994  #   O
    6    15.9994  #   O
    7    15.9994  #   O

Pair Coeffs

    1       0.10500      3.43085  #  C_R C_R
    2       0.00700      3.02104  #  Er6+3 Er6+3
    3       0.04400      2.57113  #  H_ H_
    4       0.06900      3.26069  #  N_R N_R
    5       0.06000      3.11815  #  O_1 O_1
    6       0.06000      3.11815  #  O_2_M O_2_M
    7       0.06000      3.11815  #  O_R O_R

Bond Coeffs

    1     185.78953      2.38613  #  Er6+3 O_2_M bond order=0.5
    2     524.46515      1.01210  #  H_ O_R bond order=1.0
    3     357.44038      1.08142  #  C_R H_ bond order=1.0
    4     462.65505      1.37926  #  C_R C_R bond order=1.5
    5     561.44721      1.42220  #  C_R N_R bond order=1.0
    6     391.66951      1.45800  #  C_R C_R bond order=1.0
    7     663.66675      1.34507  #  C_R N_R bond order=1.5
    8     714.55744      1.26901  #  C_R O_2_M bond order=1.5
    9     706.67500      1.27367  #  C_R O_1 bond order=1.5
    10    646.62465      1.31194  #  C_R O_R bond order=1.5
    11    928.96322      1.32250  #  N_R N_R bond order=1.5

Angle Coeffs

    1  cosine/periodic         68.57045            1            4  #  O_2_M Er6+3 O_2_M
    2  cosine/periodic        111.29751           -1            3  #  C_R C_R C_R
    3  cosine/periodic        141.32633           -1            3  #  C_R C_R N_R
    4  cosine/periodic        102.18328           -1            3  #  C_R C_R C_R
    5  cosine/periodic         57.28902           -1            3  #  C_R C_R H_
    6  cosine/periodic         79.78069           -1            3  #  H_ C_R N_R
    7  cosine/periodic        153.68727           -1            3  #  C_R C_R N_R
    8  cosine/periodic        137.71425           -1            3  #  C_R C_R O_2_M
    9  cosine/periodic        206.77843           -1            3  #  O_2_M C_R O_2_M
    10 cosine/periodic        137.04263           -1            3  #  C_R C_R O_1
    11 cosine/periodic        205.62388           -1            3  #  O_1 C_R O_2_M
    12 cosine/periodic        131.74425           -1            3  #  C_R C_R O_R
    13 cosine/periodic        195.47893           -1            3  #  O_1 C_R O_R
    14 cosine/periodic        140.82706           -1            3  #  C_R C_R N_R
    15 cosine/periodic        223.47382           -1            3  #  N_R N_R N_R
    16 cosine/periodic        163.72605           -1            3  #  C_R N_R N_R
    17 cosine/periodic        110.13309           -1            3  #  C_R N_R C_R
    18 cosine/periodic        150.06495           -1            3  #  C_R N_R N_R
    19 cosine/periodic         73.25253           -1            3  #  C_R O_2_M Er6+3
    20 fourier                167.70826      0.35263      0.39441      0.28421  #  C_R O_R H_

Dihedral Coeffs

    1       3.36856           -1            2  #  X C_R C_R X bond order=1.5
    2       1.25000           -1            2  #  X C_R N_R X bond order=1.0
    3       1.25000           -1            2  #  X C_R C_R X bond order=1.0
    4       3.36856           -1            2  #  X C_R N_R X bond order=1.5
    5       6.73711           -1            2  #  X C_R O_2_M X bond order=1.5
    6       6.73711           -1            2  #  X C_R O_R X bond order=1.5
    7       6.73711           -1            2  #  X N_R N_R X bond order=1.5

Improper Coeffs

    1       2.00000      1.00000     -1.00000      0.00000            1  #  C_R X X X O_2 present=False
    2      16.66667      1.00000     -1.00000      0.00000            1  #  C_R X X X O_2 present=True
    3       2.00000      1.00000     -1.00000      0.00000            1  #  N_R X X X O_2 present=False

Atoms # a, b, c, alpha, beta, gamma: 19.4988000000, 22.0968000000, 40.9690000000, 90.0000000000, 90.0000000000, 108.8980000000 $$$atoms$$$

    1 1     2      0.00000      1.79840      3.29495     19.77451   #   Er1   0.15008000   0.15761000   0.48267000
    2 1     2      0.00000     -0.50210      7.15791      9.53226   #   Er2   0.09992000   0.34239000   0.23267000
    3 1     2      0.00000      4.37260      7.15791      0.70999   #   Er3   0.34992000   0.34239000   0.01733000
    4 1     2      0.00000      6.67310      3.29495     10.95224   #   Er4   0.40008000   0.15761000   0.26733000
    5 1     3      0.00000      4.94418      6.92815      7.02823   #    H1   0.37520000   0.33140000   0.17155000
    6 1     3      0.00000      0.82906      3.06896      3.49875   #    H2   0.09640000   0.14680000   0.08540000
    7 1     3      0.00000      9.21177      1.36828      4.25463   #    H3   0.49645000   0.06545000   0.10385000
    8 1     3      0.00000      1.81017      3.83411      7.33550   #    H4   0.16015000   0.18340000   0.17905000
    9 1     3      0.00000      4.00562     10.26784      3.80602   #    H5   0.38570000   0.49115000   0.09290000
   10 1     3      0.00000      3.68614      5.76161      4.34067   #    H6   0.29020000   0.27560000   0.10595000
   11 1     3      0.00000      1.13444      7.77588      5.09859   #    H7   0.19470000   0.37195000   0.12445000
   12 1     3      0.00000      3.29027      9.90826      7.73700   #    H8   0.34270000   0.47395000   0.18885000
   13 1     3      0.00000      6.10151      3.52470     17.27048   #    H9   0.37480000   0.16860000   0.42155000
   14 1     3      0.00000      0.46723      7.38390     13.74100   #   H10   0.15360000   0.35320000   0.33540000
   15 1     3      0.00000      1.83393      9.08458     14.49688   #   H11   0.25355000   0.43455000   0.35385000
   16 1     3      0.00000     -0.51388      6.61875     17.57775   #   H12   0.08985000   0.31660000   0.42905000
   17 1     3      0.00000      7.04008      0.18502     14.04827   #   H13   0.36430000   0.00885000   0.34290000
   18 1     3      0.00000      7.35956      4.69124     14.58292   #   H14   0.45980000   0.22440000   0.35595000
   19 1     3      0.00000      0.16185      2.67698     15.34084   #   H15   0.05530000   0.12805000   0.37445000
   20 1     3      0.00000      7.75543      0.54459     17.97925   #   H16   0.40730000   0.02605000   0.43885000
   21 1     3      0.00000      1.22681      3.52470     13.45627   #   H17   0.12480000   0.16860000   0.32845000
   22 1     3      0.00000      5.34193      7.38390     16.98575   #   H18   0.40360000   0.35320000   0.41460000
   23 1     3      0.00000     -3.04077      9.08458     16.22987   #   H19   0.00355000   0.43455000   0.39615000
   24 1     3      0.00000      4.36082      6.61875     13.14900   #   H20   0.33985000   0.31660000   0.32095000
   25 1     3      0.00000      2.16538      0.18502     16.67848   #   H21   0.11430000   0.00885000   0.40710000
   26 1     3      0.00000      2.48486      4.69124     16.14383   #   H22   0.20980000   0.22440000   0.39405000
   27 1     3      0.00000      5.03655      2.67698     15.38591   #   H23   0.30530000   0.12805000   0.37555000
   28 1     3      0.00000      2.88073      0.54459     12.74750   #   H24   0.15730000   0.02605000   0.31115000
   29 1     3      0.00000      0.06948      6.92815      3.21402   #   H25   0.12520000   0.33140000   0.07845000
   30 1     3      0.00000      5.70376      3.06896      6.74350   #   H26   0.34640000   0.14680000   0.16460000
   31 1     3      0.00000      4.33707      1.36828      5.98762   #   H27   0.24645000   0.06545000   0.14615000
   32 1     3      0.00000      6.68487      3.83411      2.90675   #   H28   0.41015000   0.18340000   0.07095000
   33 1     3      0.00000     -0.86908     10.26784      6.43623   #   H29   0.13570000   0.49115000   0.15710000
   34 1     3      0.00000     -1.18856      5.76161      5.90158   #   H30   0.04020000   0.27560000   0.14405000
   35 1     3      0.00000      6.00914      7.77588      5.14366   #   H31   0.44470000   0.37195000   0.12555000
   36 1     3      0.00000     -1.58443      9.90826      2.50525   #   H32   0.09270000   0.47395000   0.06115000
   37 1     1      0.00000      3.77605     10.27202      5.80326   #    C1   0.37400000   0.49135000   0.14165000
   38 1     1      0.00000      2.10980      8.73441      6.58782   #    C2   0.26155000   0.41780000   0.16080000
   39 1     1      0.00000      2.53304      8.94764      4.23005   #    C3   0.28700000   0.42800000   0.10325000
   40 1     1      0.00000      1.33064      3.54038      4.12558   #    C4   0.13040000   0.16935000   0.10070000
   41 1     1      0.00000      9.16928      1.48953      5.17643   #    C5   0.49640000   0.07125000   0.12635000
   42 1     1      0.00000      1.91999      4.00031      6.42804   #    C6   0.16870000   0.19135000   0.15690000
   43 1     1      0.00000      1.33378      8.08215      7.69193   #    C7   0.21030000   0.38660000   0.18775000
   44 1     1      0.00000      1.14480      3.31146      5.48985   #    C8   0.11685000   0.15840000   0.13400000
   45 1     1      0.00000      3.51828      9.89154      4.50249   #    C9   0.35410000   0.47315000   0.10990000
   46 1     1      0.00000      2.47786      4.71737      2.23486   #   C10   0.20990000   0.22565000   0.05455000
   47 1     1      0.00000      2.31156      8.49817      2.80228   #   C11   0.26775000   0.40650000   0.06840000
   48 1     1      0.00000      2.85473      4.93793      5.99581   #   C12   0.23310000   0.23620000   0.14635000
   49 1     1      0.00000      2.27159      4.47696      3.70565   #   C13   0.19510000   0.21415000   0.09045000
   50 1     1      0.00000      3.04123      5.15639      4.62950   #   C14   0.24650000   0.24665000   0.11300000
   51 1     1      0.00000      3.65692      5.66754      6.99751   #   C15   0.28705000   0.27110000   0.17080000
   52 1     1      0.00000      0.15092      2.35294      5.92002   #   C16   0.04905000   0.11255000   0.14450000
   53 1     1      0.00000      1.81399      8.38528      5.27681   #   C17   0.24025000   0.40110000   0.12880000
   54 1     1      0.00000      3.09149      9.67725      6.86026   #   C18   0.32845000   0.46290000   0.16745000
   55 1     1      0.00000      7.26964      0.18083     16.04551   #   C19   0.37600000   0.00865000   0.39165000
   56 1     1      0.00000      8.93590      1.71845     16.83007   #   C20   0.48845000   0.08220000   0.41080000
   57 1     1      0.00000      8.51265      1.50521     14.47230   #   C21   0.46300000   0.07200000   0.35325000
   58 1     1      0.00000     -0.03434      6.91247     14.36783   #   C22   0.11960000   0.33065000   0.35070000
   59 1     1      0.00000      1.87641      8.96332     15.41868   #   C23   0.25360000   0.42875000   0.37635000
   60 1     1      0.00000     -0.62370      6.45255     16.67029   #   C24   0.08130000   0.30865000   0.40690000
   61 1     1      0.00000     -0.03748      2.37071     17.93418   #   C25   0.03970000   0.11340000   0.43775000
   62 1     1      0.00000      0.15150      7.14139     15.73210   #   C26   0.13315000   0.34160000   0.38400000
   63 1     1      0.00000      7.52741      0.56132     14.74474   #   C27   0.39590000   0.02685000   0.35990000
   64 1     1      0.00000     -1.18157      5.73548     12.47711   #   C28   0.04010000   0.27435000   0.30455000
   65 1     1      0.00000      8.73413      1.95468     13.04453   #   C29   0.48225000   0.09350000   0.31840000
   66 1     1      0.00000     -1.55844      5.51493     16.23806   #   C30   0.01690000   0.26380000   0.39635000
   67 1     1      0.00000     -0.97529      5.97590     13.94790   #   C31   0.05490000   0.28585000   0.34045000
   68 1     1      0.00000     -1.74493      5.29646     14.87175   #   C32   0.00350000   0.25335000   0.36300000
   69 1     1      0.00000      7.38878      4.78532     17.23976   #   C33   0.46295000   0.22890000   0.42080000
   70 1     1      0.00000      1.14538      8.09992     16.16227   #   C34   0.20095000   0.38745000   0.39450000
   71 1     1      0.00000     -0.51770      2.06757     15.51906   #   C35   0.00975000   0.09890000   0.37880000
   72 1     1      0.00000      7.95420      0.77560     17.10251   #   C36   0.42155000   0.03710000   0.41745000
   73 1     1      0.00000      2.39494      0.18083     14.68124   #   C37   0.12600000   0.00865000   0.35835000
   74 1     1      0.00000      4.06120      1.71845     13.89668   #   C38   0.23845000   0.08220000   0.33920000
   75 1     1      0.00000      3.63795      1.50521     16.25445   #   C39   0.21300000   0.07200000   0.39675000
   76 1     1      0.00000      4.84036      6.91247     16.35892   #   C40   0.36960000   0.33065000   0.39930000
   77 1     1      0.00000     -2.99829      8.96332     15.30807   #   C41   0.00360000   0.42875000   0.37365000
   78 1     1      0.00000      4.25100      6.45255     14.05646   #   C42   0.33130000   0.30865000   0.34310000
   79 1     1      0.00000      4.83722      2.37071     12.79257   #   C43   0.28970000   0.11340000   0.31225000
   80 1     1      0.00000      5.02620      7.14139     14.99465   #   C44   0.38315000   0.34160000   0.36600000
   81 1     1      0.00000      2.65271      0.56132     15.98201   #   C45   0.14590000   0.02685000   0.39010000
   82 1     1      0.00000      3.69313      5.73548     18.24964   #   C46   0.29010000   0.27435000   0.44545000
   83 1     1      0.00000      3.85943      1.95468     17.68222   #   C47   0.23225000   0.09350000   0.43160000
   84 1     1      0.00000      3.31626      5.51493     14.48869   #   C48   0.26690000   0.26380000   0.35365000
   85 1     1      0.00000      3.89941      5.97590     16.77885   #   C49   0.30490000   0.28585000   0.40955000
   86 1     1      0.00000      3.12977      5.29646     15.85500   #   C50   0.25350000   0.25335000   0.38700000
   87 1     1      0.00000      2.51408      4.78532     13.48699   #   C51   0.21295000   0.22890000   0.32920000
   88 1     1      0.00000      6.02008      8.09992     14.56448   #   C52   0.45095000   0.38745000   0.35550000
   89 1     1      0.00000      4.35700      2.06757     15.20769   #   C53   0.25975000   0.09890000   0.37120000
   90 1     1      0.00000      3.07950      0.77560     13.62424   #   C54   0.17155000   0.03710000   0.33255000
   91 1     1      0.00000     -1.09865     10.27202      4.43899   #   C55   0.12400000   0.49135000   0.10835000
   92 1     1      0.00000     -2.76490      8.73441      3.65443   #   C56   0.01155000   0.41780000   0.08920000
   93 1     1      0.00000     -2.34166      8.94764      6.01220   #   C57   0.03700000   0.42800000   0.14675000
   94 1     1      0.00000      6.20534      3.54038      6.11667   #   C58   0.38040000   0.16935000   0.14930000
   95 1     1      0.00000      4.29458      1.48953      5.06582   #   C59   0.24640000   0.07125000   0.12365000
   96 1     1      0.00000      6.79469      4.00031      3.81421   #   C60   0.41870000   0.19135000   0.09310000
   97 1     1      0.00000      6.20848      8.08215      2.55032   #   C61   0.46030000   0.38660000   0.06225000
   98 1     1      0.00000      6.01950      3.31146      4.75240   #   C62   0.36685000   0.15840000   0.11600000
   99 1     1      0.00000     -1.35642      9.89154      5.73976   #   C63   0.10410000   0.47315000   0.14010000
  100 1     1      0.00000      7.35256      4.71737      8.00739   #   C64   0.45990000   0.22565000   0.19545000
  101 1     1      0.00000     -2.56314      8.49817      7.43997   #   C65   0.01775000   0.40650000   0.18160000
  102 1     1      0.00000      7.72943      4.93793      4.24644   #   C66   0.48310000   0.23620000   0.10365000
  103 1     1      0.00000      7.14629      4.47696      6.53660   #   C67   0.44510000   0.21415000   0.15955000
  104 1     1      0.00000      7.91593      5.15639      5.61275   #   C68   0.49650000   0.24665000   0.13700000
  105 1     1      0.00000     -1.21778      5.66754      3.24474   #   C69   0.03705000   0.27110000   0.07920000
  106 1     1      0.00000      5.02562      2.35294      4.32223   #   C70   0.29905000   0.11255000   0.10550000
  107 1     1      0.00000      6.68869      8.38528      4.96544   #   C71   0.49025000   0.40110000   0.12120000
  108 1     1      0.00000     -1.78321      9.67725      3.38199   #   C72   0.07845000   0.46290000   0.08255000
  109 1     4      0.00000      8.60775      1.31288      7.30887   #    N1   0.46450000   0.06280000   0.17840000
  110 1     4      0.00000     -0.21351      2.23273      7.23513   #    N2   0.02825000   0.10680000   0.17660000
  111 1     4      0.00000      8.35862      0.83309      6.05727   #    N3   0.44330000   0.03985000   0.14785000
  112 1     4      0.00000      2.43795      9.13998     17.55112   #    N4   0.28550000   0.43720000   0.42840000
  113 1     4      0.00000      1.50980      8.22012     17.47738   #    N5   0.22175000   0.39320000   0.42660000
  114 1     4      0.00000      2.68708      9.61976     16.29952   #    N6   0.30670000   0.46015000   0.39785000
  115 1     4      0.00000     -2.43675      9.13998     13.17563   #    N7   0.03550000   0.43720000   0.32160000
  116 1     4      0.00000      6.38450      8.22012     13.24937   #    N8   0.47175000   0.39320000   0.32340000
  117 1     4      0.00000     -2.18762      9.61976     14.42723   #    N9   0.05670000   0.46015000   0.35215000
  118 1     4      0.00000      3.73305      1.31288      2.93338   #   N10   0.21450000   0.06280000   0.07160000
  119 1     4      0.00000      4.66119      2.23273      3.00712   #   N11   0.27825000   0.10680000   0.07340000
  120 1     4      0.00000      3.48392      0.83309      4.18498   #   N12   0.19330000   0.03985000   0.10215000
  121 1     6      0.00000      1.72695      4.11424      1.43596   #    O1   0.16080000   0.19680000   0.03505000
  122 1     7      0.00000      4.49752      6.49854      6.43623   #    O2   0.34475000   0.31085000   0.15710000
  123 1     5      0.00000      1.23551      7.96194      2.45814   #    O3   0.20315000   0.38085000   0.06000000
  124 1     6      0.00000      1.34196      8.57657      8.85545   #    O4   0.21940000   0.41025000   0.21615000
  125 1     6      0.00000      0.66861      7.04627      7.43792   #    O5   0.15800000   0.33705000   0.18155000
  126 1     6      0.00000      3.39326      5.49507      1.87843   #    O6   0.27050000   0.26285000   0.04585000
  127 1     6      0.00000      3.27239      8.69887      2.01977   #    O7   0.32055000   0.41610000   0.04930000
  128 1     5      0.00000      3.55885      5.54106      8.19380   #    O8   0.27980000   0.26505000   0.20000000
  129 1     6      0.00000     -0.43065      6.33861     11.67821   #    O9   0.08920000   0.30320000   0.28505000
  130 1     7      0.00000      6.54818      3.95431     16.67848   #   O10   0.40525000   0.18915000   0.40710000
  131 1     5      0.00000      0.06079      2.49092     12.70039   #   O11   0.04685000   0.11915000   0.31000000
  132 1     6      0.00000     -0.04566      1.87629     19.09770   #   O12   0.03060000   0.08975000   0.46615000
  133 1     6      0.00000      0.62769      3.40659     17.68017   #   O13   0.09200000   0.16295000   0.43155000
  134 1     6      0.00000      7.65244      4.95779     12.12068   #   O14   0.47950000   0.23715000   0.29585000
  135 1     6      0.00000      7.77330      1.75399     12.26202   #   O15   0.42945000   0.08390000   0.29930000
  136 1     5      0.00000      7.48684      4.91180     18.43605   #   O16   0.47020000   0.23495000   0.45000000
  137 1     6      0.00000      4.44405      6.33861     19.04854   #   O17   0.33920000   0.30320000   0.46495000
  138 1     7      0.00000      1.67348      3.95431     14.04827   #   O18   0.15525000   0.18915000   0.34290000
  139 1     5      0.00000      4.93549      2.49092     18.02636   #   O19   0.29685000   0.11915000   0.44000000
  140 1     6      0.00000      4.82904      1.87629     11.62905   #   O20   0.28060000   0.08975000   0.28385000
  141 1     6      0.00000      5.50239      3.40659     13.04658   #   O21   0.34200000   0.16295000   0.31845000
  142 1     6      0.00000      2.77774      4.95779     18.60607   #   O22   0.22950000   0.23715000   0.45415000
  143 1     6      0.00000      2.89860      1.75399     18.46473   #   O23   0.17945000   0.08390000   0.45070000
  144 1     5      0.00000      2.61214      4.91180     12.29070   #   O24   0.22020000   0.23495000   0.30000000
  145 1     6      0.00000      6.60165      4.11424      8.80629   #   O25   0.41080000   0.19680000   0.21495000
  146 1     7      0.00000     -0.37718      6.49854      3.80602   #   O26   0.09475000   0.31085000   0.09290000
  147 1     5      0.00000      6.11021      7.96194      7.78411   #   O27   0.45315000   0.38085000   0.19000000
  148 1     6      0.00000      6.21666      8.57657      1.38680   #   O28   0.46940000   0.41025000   0.03385000
  149 1     6      0.00000      5.54331      7.04627      2.80433   #   O29   0.40800000   0.33705000   0.06845000
  150 1     6      0.00000     -1.48144      5.49507      8.36382   #   O30   0.02050000   0.26285000   0.20415000
  151 1     6      0.00000     -1.60231      8.69887      8.22248   #   O31   0.07055000   0.41610000   0.20070000
  152 1     5      0.00000     -1.31585      5.54106      2.04845   #   O32   0.02980000   0.26505000   0.05000000
  153 1     2      0.00000      1.79840      3.29495     40.25901   #   Er1   0.15008000   0.15761000   0.98267000
  154 1     2      0.00000     -0.50210      7.15791     30.01676   #   Er2   0.09992000   0.34239000   0.73267000
  155 1     2      0.00000      4.37260      7.15791     21.19449   #   Er3   0.34992000   0.34239000   0.51733000
  156 1     2      0.00000      6.67310      3.29495     31.43674   #   Er4   0.40008000   0.15761000   0.76733000
  157 1     3      0.00000      4.94418      6.92815     27.51273   #    H1   0.37520000   0.33140000   0.67155000
  158 1     3      0.00000      0.82906      3.06896     23.98325   #    H2   0.09640000   0.14680000   0.58540000
  159 1     3      0.00000      9.21177      1.36828     24.73913   #    H3   0.49645000   0.06545000   0.60385000
  160 1     3      0.00000      1.81017      3.83411     27.82000   #    H4   0.16015000   0.18340000   0.67905000
  161 1     3      0.00000      4.00562     10.26784     24.29052   #    H5   0.38570000   0.49115000   0.59290000
  162 1     3      0.00000      3.68614      5.76161     24.82517   #    H6   0.29020000   0.27560000   0.60595000
  163 1     3      0.00000      1.13444      7.77588     25.58309   #    H7   0.19470000   0.37195000   0.62445000
  164 1     3      0.00000      3.29027      9.90826     28.22150   #    H8   0.34270000   0.47395000   0.68885000
  165 1     3      0.00000      6.10151      3.52470     37.75498   #    H9   0.37480000   0.16860000   0.92155000
  166 1     3      0.00000      0.46723      7.38390     34.22550   #   H10   0.15360000   0.35320000   0.83540000
  167 1     3      0.00000      1.83393      9.08458     34.98138   #   H11   0.25355000   0.43455000   0.85385000
  168 1     3      0.00000     -0.51388      6.61875     38.06225   #   H12   0.08985000   0.31660000   0.92905000
  169 1     3      0.00000      7.04008      0.18502     34.53277   #   H13   0.36430000   0.00885000   0.84290000
  170 1     3      0.00000      7.35956      4.69124     35.06742   #   H14   0.45980000   0.22440000   0.85595000
  171 1     3      0.00000      0.16185      2.67698     35.82534   #   H15   0.05530000   0.12805000   0.87445000
  172 1     3      0.00000      7.75543      0.54459     38.46375   #   H16   0.40730000   0.02605000   0.93885000
  173 1     3      0.00000      1.22681      3.52470     33.94077   #   H17   0.12480000   0.16860000   0.82845000
  174 1     3      0.00000      5.34193      7.38390     37.47025   #   H18   0.40360000   0.35320000   0.91460000
  175 1     3      0.00000     -3.04077      9.08458     36.71437   #   H19   0.00355000   0.43455000   0.89615000
  176 1     3      0.00000      4.36082      6.61875     33.63350   #   H20   0.33985000   0.31660000   0.82095000
  177 1     3      0.00000      2.16538      0.18502     37.16298   #   H21   0.11430000   0.00885000   0.90710000
  178 1     3      0.00000      2.48486      4.69124     36.62833   #   H22   0.20980000   0.22440000   0.89405000
  179 1     3      0.00000      5.03655      2.67698     35.87041   #   H23   0.30530000   0.12805000   0.87555000
  180 1     3      0.00000      2.88073      0.54459     33.23200   #   H24   0.15730000   0.02605000   0.81115000
  181 1     3      0.00000      0.06948      6.92815     23.69852   #   H25   0.12520000   0.33140000   0.57845000
  182 1     3      0.00000      5.70376      3.06896     27.22800   #   H26   0.34640000   0.14680000   0.66460000
  183 1     3      0.00000      4.33707      1.36828     26.47212   #   H27   0.24645000   0.06545000   0.64615000
  184 1     3      0.00000      6.68487      3.83411     23.39125   #   H28   0.41015000   0.18340000   0.57095000
  185 1     3      0.00000     -0.86908     10.26784     26.92073   #   H29   0.13570000   0.49115000   0.65710000
  186 1     3      0.00000     -1.18856      5.76161     26.38608   #   H30   0.04020000   0.27560000   0.64405000
  187 1     3      0.00000      6.00914      7.77588     25.62816   #   H31   0.44470000   0.37195000   0.62555000
  188 1     3      0.00000     -1.58443      9.90826     22.98975   #   H32   0.09270000   0.47395000   0.56115000
  189 1     1      0.00000      3.77605     10.27202     26.28776   #    C1   0.37400000   0.49135000   0.64165000
  190 1     1      0.00000      2.10980      8.73441     27.07232   #    C2   0.26155000   0.41780000   0.66080000
  191 1     1      0.00000      2.53304      8.94764     24.71455   #    C3   0.28700000   0.42800000   0.60325000
  192 1     1      0.00000      1.33064      3.54038     24.61008   #    C4   0.13040000   0.16935000   0.60070000
  193 1     1      0.00000      9.16928      1.48953     25.66093   #    C5   0.49640000   0.07125000   0.62635000
  194 1     1      0.00000      1.91999      4.00031     26.91254   #    C6   0.16870000   0.19135000   0.65690000
  195 1     1      0.00000      1.33378      8.08215     28.17643   #    C7   0.21030000   0.38660000   0.68775000
  196 1     1      0.00000      1.14480      3.31146     25.97435   #    C8   0.11685000   0.15840000   0.63400000
  197 1     1      0.00000      3.51828      9.89154     24.98699   #    C9   0.35410000   0.47315000   0.60990000
  198 1     1      0.00000      2.47786      4.71737     22.71936   #   C10   0.20990000   0.22565000   0.55455000
  199 1     1      0.00000      2.31156      8.49817     23.28678   #   C11   0.26775000   0.40650000   0.56840000
  200 1     1      0.00000      2.85473      4.93793     26.48031   #   C12   0.23310000   0.23620000   0.64635000
  201 1     1      0.00000      2.27159      4.47696     24.19015   #   C13   0.19510000   0.21415000   0.59045000
  202 1     1      0.00000      3.04123      5.15639     25.11400   #   C14   0.24650000   0.24665000   0.61300000
  203 1     1      0.00000      3.65692      5.66754     27.48201   #   C15   0.28705000   0.27110000   0.67080000
  204 1     1      0.00000      0.15092      2.35294     26.40452   #   C16   0.04905000   0.11255000   0.64450000
  205 1     1      0.00000      1.81399      8.38528     25.76131   #   C17   0.24025000   0.40110000   0.62880000
  206 1     1      0.00000      3.09149      9.67725     27.34476   #   C18   0.32845000   0.46290000   0.66745000
  207 1     1      0.00000      7.26964      0.18083     36.53001   #   C19   0.37600000   0.00865000   0.89165000
  208 1     1      0.00000      8.93590      1.71845     37.31457   #   C20   0.48845000   0.08220000   0.91080000
  209 1     1      0.00000      8.51265      1.50521     34.95680   #   C21   0.46300000   0.07200000   0.85325000
  210 1     1      0.00000     -0.03434      6.91247     34.85233   #   C22   0.11960000   0.33065000   0.85070000
  211 1     1      0.00000      1.87641      8.96332     35.90318   #   C23   0.25360000   0.42875000   0.87635000
  212 1     1      0.00000     -0.62370      6.45255     37.15479   #   C24   0.08130000   0.30865000   0.90690000
  213 1     1      0.00000     -0.03748      2.37071     38.41868   #   C25   0.03970000   0.11340000   0.93775000
  214 1     1      0.00000      0.15150      7.14139     36.21660   #   C26   0.13315000   0.34160000   0.88400000
  215 1     1      0.00000      7.52741      0.56132     35.22924   #   C27   0.39590000   0.02685000   0.85990000
  216 1     1      0.00000     -1.18157      5.73548     32.96161   #   C28   0.04010000   0.27435000   0.80455000
  217 1     1      0.00000      8.73413      1.95468     33.52903   #   C29   0.48225000   0.09350000   0.81840000
  218 1     1      0.00000     -1.55844      5.51493     36.72256   #   C30   0.01690000   0.26380000   0.89635000
  219 1     1      0.00000     -0.97529      5.97590     34.43240   #   C31   0.05490000   0.28585000   0.84045000
  220 1     1      0.00000     -1.74493      5.29646     35.35625   #   C32   0.00350000   0.25335000   0.86300000
  221 1     1      0.00000      7.38878      4.78532     37.72426   #   C33   0.46295000   0.22890000   0.92080000
  222 1     1      0.00000      1.14538      8.09992     36.64677   #   C34   0.20095000   0.38745000   0.89450000
  223 1     1      0.00000     -0.51770      2.06757     36.00356   #   C35   0.00975000   0.09890000   0.87880000