Created by Ryther's code on 2025-07-31 16:51:46.346932, modified by xyan11@uic.edu. 

    1152 atoms
    1536 bonds
    3648 angles
    2880 dihedrals
    576 impropers

    6 atom types
    8 bond types
    17 angle types
    4 dihedral types
    3 improper types

0.00000000 21.978 xlo xhi
0.00000000 23.892 ylo yhi
0.00000000 38.804 zlo zhi
0.0 0.0 0.0 xy xz yz 

Masses 

    1    12.0107  #   C
    2    1.00794  #   H
    3    14.0067  #   N
    4    144.242  #  Nd
    5    15.9994  #   O
    6    15.9994  #   O

Pair Coeffs

    1       0.10500      3.43085  #  C_R C_R
    2       0.04400      2.57113  #  H_ H_
    3       0.06900      3.26069  #  N_R N_R
    4       0.01000      3.18496  #  Nd8f4 Nd8f4
    5       0.06000      3.11815  #  O_1 O_1
    6       0.06000      3.11815  #  O_2_M O_2_M

Bond Coeffs

    1     167.93703      2.46785  #  Nd8f4 O_2_M bond order=0.5
    2     159.05101      2.59881  #  N_R Nd8f4 bond order=0.5
    3     357.44038      1.08142  #  C_R H_ bond order=1.0
    4     663.66675      1.34507  #  C_R N_R bond order=1.5
    5     391.66951      1.45800  #  C_R C_R bond order=1.0
    6     462.65505      1.37926  #  C_R C_R bond order=1.5
    7     714.55744      1.26901  #  C_R O_2_M bond order=1.5
    8     706.67500      1.27367  #  C_R O_1 bond order=1.5

Angle Coeffs

    1  fourier                 73.08447      0.34375      0.37500      0.28125  #  N_R Nd8f4 O_2_M
    2  fourier                 71.57014      0.34375      0.37500      0.28125  #  O_2_M Nd8f4 O_2_M
    3  fourier                 74.96817      0.34375      0.37500      0.28125  #  N_R Nd8f4 N_R
    4  cosine/periodic         79.78069           -1            3  #  H_ C_R N_R
    5  cosine/periodic        212.40917           -1            3  #  N_R C_R N_R
    6  cosine/periodic        140.82706           -1            3  #  C_R C_R N_R
    7  cosine/periodic        102.18328           -1            3  #  C_R C_R C_R
    8  cosine/periodic        153.68727           -1            3  #  C_R C_R N_R
    9  cosine/periodic         57.28902           -1            3  #  C_R C_R H_
    10 cosine/periodic        111.29751           -1            3  #  C_R C_R C_R
    11 cosine/periodic        137.71425           -1            3  #  C_R C_R O_2_M
    12 cosine/periodic        206.77843           -1            3  #  O_2_M C_R O_2_M
    13 cosine/periodic        137.04263           -1            3  #  C_R C_R O_1
    14 cosine/periodic        205.62388           -1            3  #  O_1 C_R O_2_M
    15 cosine/periodic         57.73771           -1            3  #  C_R N_R Nd8f4
    16 cosine/periodic        120.00052           -1            3  #  C_R N_R C_R
    17 cosine/periodic         67.71104           -1            3  #  C_R O_2_M Nd8f4

Dihedral Coeffs

    1       3.36856           -1            2  #  X C_R N_R X bond order=1.5
    2       1.25000           -1            2  #  X C_R C_R X bond order=1.0
    3       3.36856           -1            2  #  X C_R C_R X bond order=1.5
    4       6.73711           -1            2  #  X C_R O_2_M X bond order=1.5

Improper Coeffs

    1       2.00000      1.00000     -1.00000      0.00000            1  #  C_R X X X O_2 present=False
    2      16.66667      1.00000     -1.00000      0.00000            1  #  C_R X X X O_2 present=True
    3       2.00000      1.00000     -1.00000      0.00000            1  #  N_R X X X O_2 present=False

Atoms # a, b, c, alpha, beta, gamma: 21.9780000000, 23.8920000000, 38.8040000000, 90.0000000000, 90.0000000000, 90.0000000000 $$$atoms$$$

    1 1     4      0.00000      1.50242      4.08326      0.27900   #   Nd1   0.06836000   0.17090500   0.00719000
    2 1     4      0.00000      6.79087      6.25970      4.43433   #   Nd2   0.30898500   0.26200000   0.11427500
    3 1     4      0.00000      9.48658      7.86274      9.98000   #   Nd3   0.43164000   0.32909500   0.25719000
    4 1     4      0.00000      4.19813      5.68630     14.13533   #   Nd4   0.19101500   0.23800000   0.36427500
    5 1     4      0.00000      3.99208     10.05626      0.27900   #   Nd5   0.18164000   0.42090500   0.00719000
    6 1     4      0.00000      9.69263      0.28670      4.43433   #   Nd6   0.44101500   0.01200000   0.11427500
    7 1     4      0.00000      6.99692      1.88974      9.98000   #   Nd7   0.31836000   0.07909500   0.25719000
    8 1     4      0.00000      1.29637     11.65930     14.13533   #   Nd8   0.05898500   0.48800000   0.36427500
    9 1     2      0.00000      3.83846      5.89296      2.36316   #    H1   0.17465000   0.24665000   0.06090000
   10 1     2      0.00000      2.54725      2.87062      5.47330   #    H2   0.11590000   0.12015000   0.14105000
   11 1     2      0.00000      9.56153      4.75809      2.43883   #    H3   0.43505000   0.19915000   0.06285000
   12 1     2      0.00000      0.05934      9.03595      2.22735   #    H4   0.00270000   0.37820000   0.05740000
   13 1     2      0.00000      7.15054      6.05304     12.06416   #    H5   0.32535000   0.25335000   0.31090000
   14 1     2      0.00000      8.44175      9.07538     15.17430   #    H6   0.38410000   0.37985000   0.39105000
   15 1     2      0.00000      1.42747      7.18791     12.13983   #    H7   0.06495000   0.30085000   0.31285000
   16 1     2      0.00000     10.92966      2.91005     11.92835   #    H8   0.49730000   0.12180000   0.30740000
   17 1     2      0.00000      1.65604     11.86596      2.36316   #    H9   0.07535000   0.49665000   0.06090000
   18 1     2      0.00000      2.94725      8.84362      5.47330   #   H10   0.13410000   0.37015000   0.14105000
   19 1     2      0.00000      6.92197     10.73109      2.43883   #   H11   0.31495000   0.44915000   0.06285000
   20 1     2      0.00000      5.43516      3.06295      2.22735   #   H12   0.24730000   0.12820000   0.05740000
   21 1     2      0.00000      9.33296      0.08004     12.06416   #   H13   0.42465000   0.00335000   0.31090000
   22 1     2      0.00000      8.04175      3.10238     15.17430   #   H14   0.36590000   0.12985000   0.39105000
   23 1     2      0.00000      4.06703      1.21491     12.13983   #   H15   0.18505000   0.05085000   0.31285000
   24 1     2      0.00000      5.55384      8.88305     11.92835   #   H16   0.25270000   0.37180000   0.30740000
   25 1     1      0.00000      3.60329      5.23593      2.97627   #    C1   0.16395000   0.21915000   0.07670000
   26 1     1      0.00000      4.00219      4.20260      4.96303   #    C2   0.18210000   0.17590000   0.12790000
   27 1     1      0.00000      2.83187      3.45956      4.81364   #    C3   0.12885000   0.14480000   0.12405000
   28 1     1      0.00000      2.12088      3.63158      3.66116   #    C4   0.09650000   0.15200000   0.09435000
   29 1     1      0.00000      0.94725      2.74041      3.30610   #    C5   0.04310000   0.11470000   0.08520000
   30 1     1      0.00000      4.91538      3.97324      6.14461   #    C6   0.22365000   0.16630000   0.15835000
   31 1     1      0.00000      9.87032      5.63493      2.40585   #    C7   0.44910000   0.23585000   0.06200000
   32 1     1      0.00000      9.59999      7.82344      2.98209   #    C8   0.43680000   0.32745000   0.07685000
   33 1     1      0.00000     10.75384      8.15553      2.28944   #    C9   0.48930000   0.34135000   0.05900000
   34 1     1      0.00000      0.45385      7.12101      1.69962   #   C10   0.02065000   0.29805000   0.04380000
   35 1     1      0.00000      1.76373      7.35874      0.97204   #   C11   0.08025000   0.30800000   0.02505000
   36 1     1      0.00000      8.74724      8.89499      3.64564   #   C12   0.39800000   0.37230000   0.09395000
   37 1     1      0.00000      8.78241      6.74830      6.98278   #   C13   0.39960000   0.28245000   0.17995000
   38 1     1      0.00000      7.44395      7.37546      7.44455   #   C14   0.33870000   0.30870000   0.19185000
   39 1     1      0.00000      7.38571      6.71007     12.67727   #   C15   0.33605000   0.28085000   0.32670000
   40 1     1      0.00000      6.98681      7.74340     14.66403   #   C16   0.31790000   0.32410000   0.37790000
   41 1     1      0.00000      8.15713      8.48644     14.51464   #   C17   0.37115000   0.35520000   0.37405000
   42 1     1      0.00000      8.86812      8.31442     13.36216   #   C18   0.40350000   0.34800000   0.34435000
   43 1     1      0.00000     10.04175      9.20559     13.00710   #   C19   0.45690000   0.38530000   0.33520000
   44 1     1      0.00000      6.07362      7.97276     15.84561   #   C20   0.27635000   0.33370000   0.40835000
   45 1     1      0.00000      1.11868      6.31107     12.10685   #   C21   0.05090000   0.26415000   0.31200000
   46 1     1      0.00000      1.38901      4.12256     12.68309   #   C22   0.06320000   0.17255000   0.32685000
   47 1     1      0.00000      0.23516      3.79047     11.99044   #   C23   0.01070000   0.15865000   0.30900000
   48 1     1      0.00000     10.53515      4.82499     11.40062   #   C24   0.47935000   0.20195000   0.29380000
   49 1     1      0.00000      9.22527      4.58726     10.67304   #   C25   0.41975000   0.19200000   0.27505000
   50 1     1      0.00000      2.24176      3.05101     13.34664   #   C26   0.10200000   0.12770000   0.34395000
   51 1     1      0.00000      2.20659      5.19770     16.68378   #   C27   0.10040000   0.21755000   0.42995000
   52 1     1      0.00000      3.54505      4.57054     17.14555   #   C28   0.16130000   0.19130000   0.44185000
   53 1     1      0.00000      1.89121     11.20893      2.97627   #   C29   0.08605000   0.46915000   0.07670000
   54 1     1      0.00000      1.49231     10.17560      4.96303   #   C30   0.06790000   0.42590000   0.12790000
   55 1     1      0.00000      2.66263      9.43256      4.81364   #   C31   0.12115000   0.39480000   0.12405000
   56 1     1      0.00000      3.37362      9.60458      3.66116   #   C32   0.15350000   0.40200000   0.09435000
   57 1     1      0.00000      4.54725      8.71341      3.30610   #   C33   0.20690000   0.36470000   0.08520000
   58 1     1      0.00000      0.57912      9.94624      6.14461   #   C34   0.02635000   0.41630000   0.15835000
   59 1     1      0.00000      6.61318     11.60793      2.40585   #   C35   0.30090000   0.48585000   0.06200000
   60 1     1      0.00000      6.88351      1.85044      2.98209   #   C36   0.31320000   0.07745000   0.07685000
   61 1     1      0.00000      5.72966      2.18253      2.28944   #   C37   0.26070000   0.09135000   0.05900000
   62 1     1      0.00000      5.04065      1.14801      1.69962   #   C38   0.22935000   0.04805000   0.04380000
   63 1     1      0.00000      3.73077      1.38574      0.97204   #   C39   0.16975000   0.05800000   0.02505000
   64 1     1      0.00000      7.73626      2.92199      3.64564   #   C40   0.35200000   0.12230000   0.09395000
   65 1     1      0.00000      7.70109      0.77530      6.98278   #   C41   0.35040000   0.03245000   0.17995000
   66 1     1      0.00000      9.03955      1.40246      7.44455   #   C42   0.41130000   0.05870000   0.19185000
   67 1     1      0.00000      9.09779      0.73707     12.67727   #   C43   0.41395000   0.03085000   0.32670000
   68 1     1      0.00000      9.49669      1.77040     14.66403   #   C44   0.43210000   0.07410000   0.37790000
   69 1     1      0.00000      8.32637      2.51344     14.51464   #   C45   0.37885000   0.10520000   0.37405000
   70 1     1      0.00000      7.61538      2.34142     13.36216   #   C46   0.34650000   0.09800000   0.34435000
   71 1     1      0.00000      6.44175      3.23259     13.00710   #   C47   0.29310000   0.13530000   0.33520000
   72 1     1      0.00000     10.40988      1.99976     15.84561   #   C48   0.47365000   0.08370000   0.40835000
   73 1     1      0.00000      4.37582      0.33807     12.10685   #   C49   0.19910000   0.01415000   0.31200000
   74 1     1      0.00000      4.10549     10.09556     12.68309   #   C50   0.18680000   0.42255000   0.32685000
   75 1     1      0.00000      5.25934      9.76347     11.99044   #   C51   0.23930000   0.40865000   0.30900000
   76 1     1      0.00000      5.94835     10.79799     11.40062   #   C52   0.27065000   0.45195000   0.29380000
   77 1     1      0.00000      7.25823     10.56026     10.67304   #   C53   0.33025000   0.44200000   0.27505000
   78 1     1      0.00000      3.25274      9.02401     13.34664   #   C54   0.14800000   0.37770000   0.34395000
   79 1     1      0.00000      3.28791     11.17070     16.68378   #   C55   0.14960000   0.46755000   0.42995000
   80 1     1      0.00000      1.94945     10.54354     17.14555   #   C56   0.08870000   0.44130000   0.44185000
   81 1     3      0.00000      2.50110      4.52514      2.71628   #    N1   0.11380000   0.18940000   0.07000000
   82 1     3      0.00000      4.39450      5.08541      4.03950   #    N2   0.19995000   0.21285000   0.10410000
   83 1     3      0.00000      0.00549      5.86429      1.72096   #    N3   0.00025000   0.24545000   0.04435000
   84 1     3      0.00000      9.15274      6.56074      3.04805   #    N4   0.41645000   0.27460000   0.07855000
   85 1     3      0.00000      8.48790      7.42086     12.41728   #    N5   0.38620000   0.31060000   0.32000000
   86 1     3      0.00000      6.59450      6.86059     13.74050   #    N6   0.30005000   0.28715000   0.35410000
   87 1     3      0.00000     10.98351      6.08171     11.42196   #    N7   0.49975000   0.25455000   0.29435000
   88 1     3      0.00000      1.83626      5.38526     12.74905   #    N8   0.08355000   0.22540000   0.32855000
   89 1     3      0.00000      2.99340     10.49814      2.71628   #    N9   0.13620000   0.43940000   0.07000000
   90 1     3      0.00000      1.10000     11.05841      4.03950   #   N10   0.05005000   0.46285000   0.10410000
   91 1     3      0.00000      5.48901     11.83729      1.72096   #   N11   0.24975000   0.49545000   0.04435000
   92 1     3      0.00000      7.33076      0.58774      3.04805   #   N12   0.33355000   0.02460000   0.07855000
   93 1     3      0.00000      7.99560      1.44786     12.41728   #   N13   0.36380000   0.06060000   0.32000000
   94 1     3      0.00000      9.88900      0.88759     13.74050   #   N14   0.44995000   0.03715000   0.35410000
   95 1     3      0.00000      5.49999      0.10871     11.42196   #   N15   0.25025000   0.00455000   0.29435000
   96 1     3      0.00000      3.65824     11.35826     12.74905   #   N16   0.16645000   0.47540000   0.32855000
   97 1     6      0.00000      0.49121      2.85151      2.13538   #    O1   0.02235000   0.11935000   0.05503000
   98 1     6      0.00000      0.55275      1.93764      4.18850   #    O2   0.02515000   0.08110000   0.10794000
   99 1     6      0.00000      5.96593      4.68164      6.19060   #    O3   0.27145000   0.19595000   0.15953500
  100 1     5      0.00000      4.55824      3.12627      6.94786   #    O4   0.20740000   0.13085000   0.17905000
  101 1     6      0.00000      2.29011      6.38514      0.36088   #    O5   0.10420000   0.26725000   0.00930000
  102 1     6      0.00000      2.26044      8.49838      1.09932   #    O6   0.10285000   0.35570000   0.02833000
  103 1     6      0.00000      7.69779      8.51869      4.20073   #    O7   0.35025000   0.35655000   0.10825500
  104 1     6      0.00000      9.16592     10.06689      3.56609   #    O8   0.41705000   0.42135000   0.09190000
  105 1     6      0.00000      9.77252      6.91673      7.71424   #    O9   0.44465000   0.28950000   0.19880000
  106 1     6      0.00000      8.73845      6.10321      5.90597   #   O10   0.39760000   0.25545000   0.15220000
  107 1     6      0.00000      7.40768      7.78282      8.62574   #   O11   0.33705000   0.32575000   0.22229000
  108 1     6      0.00000      6.50329      7.41130      6.59843   #   O12   0.29590000   0.31020000   0.17004500
  109 1     6      0.00000     10.49779      9.09449     11.83638   #   O13   0.47765000   0.38065000   0.30503000
  110 1     6      0.00000     10.43625     10.00836     13.88950   #   O14   0.47485000   0.41890000   0.35794000
  111 1     6      0.00000      5.02307      7.26436     15.89160   #   O15   0.22855000   0.30405000   0.40953500
  112 1     5      0.00000      6.43076      8.81973     16.64886   #   O16   0.29260000   0.36915000   0.42905000
  113 1     6      0.00000      8.69889      5.56086     10.06188   #   O17   0.39580000   0.23275000   0.25930000
  114 1     6      0.00000      8.72856      3.44762     10.80032   #   O18   0.39715000   0.14430000   0.27833000
  115 1     6      0.00000      3.29121      3.42731     13.90173   #   O19   0.14975000   0.14345000   0.35825500
  116 1     6      0.00000      1.82308      1.87911     13.26709   #   O20   0.08295000   0.07865000   0.34190000
  117 1     6      0.00000      1.21648      5.02927     17.41524   #   O21   0.05535000   0.21050000   0.44880000
  118 1     6      0.00000      2.25055      5.84279     15.60697   #   O22   0.10240000   0.24455000   0.40220000
  119 1     6      0.00000      3.58132      4.16318     18.32674   #   O23   0.16295000   0.17425000   0.47229000
  120 1     6      0.00000      4.48571      4.53470     16.29943   #   O24   0.20410000   0.18980000   0.42004500
  121 1     6      0.00000      5.00329      8.82451      2.13538   #   O25   0.22765000   0.36935000   0.05503000
  122 1     6      0.00000      4.94175      7.91064      4.18850   #   O26   0.22485000   0.33110000   0.10794000
  123 1     6      0.00000     10.51757     10.65464      6.19060   #   O27   0.47855000   0.44595000   0.15953500
  124 1     5      0.00000      0.93626      9.09927      6.94786   #   O28   0.04260000   0.38085000   0.17905000
  125 1     6      0.00000      3.20439      0.41214      0.36088   #   O29   0.14580000   0.01725000   0.00930000
  126 1     6      0.00000      3.23406      2.52538      1.09932   #   O30   0.14715000   0.10570000   0.02833000
  127 1     6      0.00000      8.78571      2.54569      4.20073   #   O31   0.39975000   0.10655000   0.10825500
  128 1     6      0.00000      7.31758      4.09389      3.56609   #   O32   0.33295000   0.17135000   0.09190000
  129 1     6      0.00000      6.71098      0.94373      7.71424   #   O33   0.30535000   0.03950000   0.19880000
  130 1     6      0.00000      7.74505      0.13021      5.90597   #   O34   0.35240000   0.00545000   0.15220000
  131 1     6      0.00000      9.07582      1.80982      8.62574   #   O35   0.41295000   0.07575000   0.22229000
  132 1     6      0.00000      9.98021      1.43830      6.59843   #   O36   0.45410000   0.06020000   0.17004500
  133 1     6      0.00000      5.98571      3.12149     11.83638   #   O37   0.27235000   0.13065000   0.30503000
  134 1     6      0.00000      6.04725      4.03536     13.88950   #   O38   0.27515000   0.16890000   0.35794000
  135 1     6      0.00000      0.47143      1.29136     15.89160   #   O39   0.02145000   0.05405000   0.40953500
  136 1     5      0.00000     10.05274      2.84673     16.64886   #   O40   0.45740000   0.11915000   0.42905000
  137 1     6      0.00000      7.78461     11.53386     10.06188   #   O41   0.35420000   0.48275000   0.25930000
  138 1     6      0.00000      7.75494      9.42062     10.80032   #   O42   0.35285000   0.39430000   0.27833000
  139 1     6      0.00000      2.20329      9.40031     13.90173   #   O43   0.10025000   0.39345000   0.35825500
  140 1     6      0.00000      3.67142      7.85211     13.26709   #   O44   0.16705000   0.32865000   0.34190000
  141 1     6      0.00000      4.27802     11.00227     17.41524   #   O45   0.19465000   0.46050000   0.44880000
  142 1     6      0.00000      3.24395     11.81579     15.60697   #   O46   0.14760000   0.49455000   0.40220000
  143 1     6      0.00000      1.91318     10.13618     18.32674   #   O47   0.08705000   0.42425000   0.47229000
  144 1     6      0.00000      1.00879     10.50770     16.29943   #   O48   0.04590000   0.43980000   0.42004500
  145 1     4      0.00000      1.50242      4.08326     19.68100   #   Nd1   0.06836000   0.17090500   0.50719000
  146 1     4      0.00000      6.79087      6.25970     23.83633   #   Nd2   0.30898500   0.26200000   0.61427500
  147 1     4      0.00000      9.48658      7.86274     29.38200   #   Nd3   0.43164000   0.32909500   0.75719000
  148 1     4      0.00000      4.19813      5.68630     33.53733   #   Nd4   0.19101500   0.23800000   0.86427500
  149 1     4      0.00000      3.99208     10.05626     19.68100   #   Nd5   0.18164000   0.42090500   0.50719000
  150 1     4      0.00000      9.69263      0.28670     23.83633   #   Nd6   0.44101500   0.01200000   0.61427500
  151 1     4      0.00000      6.99692      1.88974     29.38200   #   Nd7   0.31836000   0.07909500   0.75719000
  152 1     4      0.00000      1.29637     11.65930     33.53733   #   Nd8   0.05898500   0.48800000   0.86427500
  153 1     2      0.00000      3.83846      5.89296     21.76516   #    H1   0.17465000   0.24665000   0.56090000
  154 1     2      0.00000      2.54725      2.87062     24.87530   #    H2   0.11590000   0.12015000   0.64105000
  155 1     2      0.00000      9.56153      4.75809     21.84083   #    H3   0.43505000   0.19915000   0.56285000
  156 1     2      0.00000      0.05934      9.03595     21.62935   #    H4   0.00270000   0.37820000   0.55740000
  157 1     2      0.00000      7.15054      6.05304     31.46616   #    H5   0.32535000   0.25335000   0.81090000
  158 1     2      0.00000      8.44175      9.07538     34.57630   #    H6   0.38410000   0.37985000   0.89105000
  159 1     2      0.00000      1.42747      7.18791     31.54183   #    H7   0.06495000   0.30085000   0.81285000
  160 1     2      0.00000     10.92966      2.91005     31.33035   #    H8   0.49730000   0.12180000   0.80740000
  161 1     2      0.00000      1.65604     11.86596     21.76516   #    H9   0.07535000   0.49665000   0.56090000
  162 1     2      0.00000      2.94725      8.84362     24.87530   #   H10   0.13410000   0.37015000   0.64105000
  163 1     2      0.00000      6.92197     10.73109     21.84083   #   H11   0.31495000   0.44915000   0.56285000
  164 1     2      0.00000      5.43516      3.06295     21.62935   #   H12   0.24730000   0.12820000   0.55740000
  165 1     2      0.00000      9.33296      0.08004     31.46616   #   H13   0.42465000   0.00335000   0.81090000
  166 1     2      0.00000      8.04175      3.10238     34.57630   #   H14   0.36590000   0.12985000   0.89105000
  167 1     2      0.00000      4.06703      1.21491     31.54183   #   H15   0.18505000   0.05085000   0.81285000
  168 1     2      0.00000      5.55384      8.88305     31.33035   #   H16   0.25270000   0.37180000   0.80740000
  169 1     1      0.00000      3.60329      5.23593     22.37827   #    C1   0.16395000   0.21915000   0.57670000
  170 1     1      0.00000      4.00219      4.20260     24.36503   #    C2   0.18210000   0.17590000   0.62790000
  171 1     1      0.00000      2.83187      3.45956     24.21564   #    C3   0.12885000   0.14480000   0.62405000
  172 1     1      0.00000      2.12088      3.63158     23.06316   #    C4   0.09650000   0.15200000   0.59435000
  173 1     1      0.00000      0.94725      2.74041     22.70810   #    C5   0.04310000   0.11470000   0.58520000
  174 1     1      0.00000      4.91538      3.97324     25.54661   #    C6   0.22365000   0.16630000   0.65835000
  175 1     1      0.00000      9.87032      5.63493     21.80785   #    C7   0.44910000   0.23585000   0.56200000
  176 1     1      0.00000      9.59999      7.82344     22.38409   #    C8   0.43680000   0.32745000   0.57685000
  177 1     1      0.00000     10.75384      8.15553     21.69144   #    C9   0.48930000   0.34135000   0.55900000
  178 1     1      0.00000      0.45385      7.12101     21.10162   #   C10   0.02065000   0.29805000   0.54380000
  179 1     1      0.00000      1.76373      7.35874     20.37404   #   C11   0.08025000   0.30800000   0.52505000
  180 1     1      0.00000      8.74724      8.89499     23.04764   #   C12   0.39800000   0.37230000   0.59395000
  181 1     1      0.00000      8.78241      6.74830     26.38478   #   C13   0.39960000   0.28245000   0.67995000
  182 1     1      0.00000      7.44395      7.37546     26.84655   #   C14   0.33870000   0.30870000   0.69185000
  183 1     1      0.00000      7.38571      6.71007     32.07927   #   C15   0.33605000   0.28085000   0.82670000
  184 1     1      0.00000      6.98681      7.74340     34.06603   #   C16   0.31790000   0.32410000   0.87790000
  185 1     1      0.00000      8.15713      8.48644     33.91664   #   C17   0.37115000   0.35520000   0.87405000
  186 1     1      0.00000      8.86812      8.31442     32.76416   #   C18   0.40350000   0.34800000   0.84435000
  187 1     1      0.00000     10.04175      9.20559     32.40910   #   C19   0.45690000   0.38530000   0.83520000
  188 1     1      0.00000      6.07362      7.97276     35.24761   #   C20   0.27635000   0.33370000   0.90835000
  189 1     1      0.00000      1.11868      6.31107     31.50885   #   C21   0.05090000   0.26415000   0.81200000
  190 1     1      0.00000      1.38901      4.12256     32.08509   #   C22   0.06320000   0.17255000   0.82685000
  191 1     1      0.00000      0.23516      3.79047     31.39244   #   C23   0.01070000   0.15865000   0.80900000
  192 1     1      0.00000     10.53515      4.82499     30.80262   #   C24   0.47935000   0.20195000   0.79380000
  193 1     1      0.00000      9.22527      4.58726     30.07504   #   C25   0.41975000   0.19200000   0.77505000
  194 1     1      0.00000      2.24176      3.05101     32.74864   #   C26   0.10200000   0.12770000   0.84395000
  195 1     1      0.00000      2.20659      5.19770     36.08578   #   C27   0.10040000   0.21755000   0.92995000
  196 1     1      0.00000      3.54505      4.57054     36.54755   #   C28   0.16130000   0.19130000   0.94185000
  197 1     1      0.00000      1.89121     11.20893     22.37827   #   C29   0.08605000   0.46915000   0.57670000
  198 1     1      0.00000      1.49231     10.17560     24.36503   #   C30   0.06790000   0.42590000   0.62790000
  199 1     1      0.00000      2.66263      9.43256     24.21564   #   C31   0.12115000   0.39480000   0.62405000
  200 1     1      0.00000      3.37362      9.60458     23.06316   #   C32   0.15350000   0.40200000   0.59435000
  201 1     1      0.00000      4.54725      8.71341     22.70810   #   C33   0.20690000   0.36470000   0.58520000
  202 1     1      0.00000      0.57912      9.94624     25.54661   #   C34   0.02635000   0.41630000   0.65835000
  203 1     1      0.00000      6.61318     11.60793     21.80785   #   C35   0.30090000   0.48585000   0.56200000
  204 1     1      0.00000      6.88351      1.85044     22.38409   #   C36   0.31320000   0.07745000   0.57685000
  205 1     1      0.00000      5.72966      2.18253     21.69144   #   C37   0.26070000   0.09135000   0.55900000
  206 1     1      0.00000      5.04065      1.14801     21.10162   #   C38   0.22935000   0.04805000   0.54380000
  207 1     1      0.00000      3.73077      1.38574     20.37404   #   C39   0.16975000   0.05800000   0.52505000
  208 1     1      0.00000      7.73626      2.92199     23.04764   #   C40   0.35200000   0.12230000   0.59395000
  209 1     1      0.00000      7.70109      0.77530     26.38478   #   C41   0.35040000   0.03245000   0.67995000
  210 1     1      0.00000      9.03955      1.40246     26.84655   #   C42   0.41130000   0.05870000   0.69185000
  211 1     1      0.00000      9.09779      0.73707     32.07927   #   C43   0.41395000   0.03085000   0.82670000
  212 1     1      0.00000      9.49669      1.77040     34.06603   #   C44   0.43210000   0.07410000   0.87790000
  213 1     1      0.00000      8.32637      2.51344     33.91664   #   C45   0.37885000   0.10520000   0.87405000
  214 1     1      0.00000      7.61538      2.34142     32.76416   #   C46   0.34650000   0.09800000   0.84435000
  215 1     1      0.00000      6.44175      3.23259     32.40910   #   C47   0.29310000   0.13530000   0.83520000
  216 1     1      0.00000     10.40988      1.99976     35.24761   #   C48   0.47365000   0.08370000   0.90835000
  217 1     1      0.00000      4.37582      0.33807     31.50885   #   C49   0.19910000   0.01415000   0.81200000
  218 1     1      0.00000      4.10549     10.09556     32.08509   #   C50   0.18680000   0.42255000   0.82685000
  219 1     1      0.00000      5.25934      9.76347     31.39244   #   C51   0.23930000   0.40865000   0.80900000
  220 1     1      0.00000      5.94835     10.79799     30.80262   #   C52   0.27065000   0.45195000   0.79380000
  221 1     1      0.00000      7.25823     10.56026     30.07504   #   C53   0.33025000   0.44200000   0.77505000
  222 1     1      0.00000      3.25274      9.02401     32.74864   #   C54   0.14800000   0.37770000   0.84395000
  223 1     1      0.00000      3.28791     11.17070     36.08578   #   C55   0.14960000   0.46755000   0.92995000
  224 1     1      0.00000      1.94945     10.54354     36.54755   #   C56   0.08870000   0.44130000   0.94185000
  225 1     3      0.00000      2.50110      4.52514     22.11828   #    N1   0.11380000   0.18940000   0.57000000
  226 1     3      0.00000      4.39450      5.08541     23.44150   #    N2   0.19995000   0.21285000   0.60410000
  227 1     3      0.00000      0.00549      5.86429     21.12296   #    N3   0.00025000   0.24545000   0.54435000
  228 1     3      0.00000      9.15274      6.56074     22.45005   #    N4   0.41645000   0.27460000   0.57855000
  229 1     3      0.00000      8.48790      7.42086     31.81928   #    N5   0.38620000   0.31060000   0.82000000