Created by Ryther's code on 2025-08-01 12:16:50.864553, modified by xyan11@uic.edu. 

    600 atoms
    704 bonds
    1320 angles
    1440 dihedrals
    288 impropers

    7 atom types
    15 bond types
    36 angle types
    5 dihedral types
    2 improper types

0.00000000 22.00405154 xlo xhi
0.00000000 29.98809165 ylo yhi
0.00000000 29.89824351 zlo zhi
0.03638351 0.00530862 2.31999485 xy xz yz 

Masses 

    1    12.0107  #   C
    2    1.00794  #   H
    3    14.0067  #   N
    4    15.9994  #   O
    5    15.9994  #   O
    6      65.38  #  Zn
    7      65.38  #  Zn

Pair Coeffs

    1       0.10500      3.43085  #  C_R C_R
    2       0.04400      2.57113  #  H_ H_
    3       0.06900      3.26069  #  N_2 N_2
    4       0.06000      3.11815  #  O_2_M O_2_M
    5       0.06000      3.11815  #  O_3_M O_3_M
    6       0.12400      2.46155  #  Zn4+2 Zn4+2
    7       0.06000      2.58361  #  Zn6f3 Zn6f3

Bond Coeffs

    1      48.90184      1.84943  #  H_ Zn4+2 bond order=0.5
    2     103.61325      2.20128  #  N_2 Zn4+2 bond order=0.5
    3     100.76218      2.14847  #  O_3_M Zn4+2 bond order=0.5
    4     104.44141      2.12294  #  O_2_M Zn4+2 bond order=0.5
    5      55.07699      2.48452  #  N_2 Zn6f3 bond order=0.5
    6      24.34887      2.13340  #  H_ Zn6f3 bond order=0.5
    7      54.94924      2.40433  #  O_2_M Zn6f3 bond order=0.5
    8      53.24274      2.42975  #  O_3_M Zn6f3 bond order=0.5
    9     357.44038      1.08142  #  C_R H_ bond order=1.0
    10    559.99521      0.99025  #  H_ O_3_M bond order=1.0
    11    462.65505      1.37926  #  C_R C_R bond order=1.5
    12    931.53598      1.20133  #  C_R N_2 bond order=3.0
    13    391.66951      1.45800  #  C_R C_R bond order=1.0
    14    678.02790      1.29140  #  C_R O_3_M bond order=1.5
    15    714.55744      1.26901  #  C_R O_2_M bond order=1.5

Angle Coeffs

    1  cosine/periodic         37.39156            1            4  #  H_ Zn4+2 N_2
    2  cosine/periodic         35.40556            1            4  #  H_ Zn4+2 O_3_M
    3  cosine/periodic         36.20045            1            4  #  H_ Zn4+2 O_2_M
    4  cosine/periodic         14.11273            1            4  #  H_ Zn4+2 H_
    5  cosine/periodic        100.10309            1            4  #  N_2 Zn4+2 O_3_M
    6  cosine/periodic        101.82219            1            4  #  N_2 Zn4+2 O_2_M
    7  cosine/periodic         93.93580            1            4  #  O_3_M Zn4+2 O_3_M
    8  cosine/periodic         95.61832            1            4  #  O_2_M Zn4+2 O_3_M
    9  cosine/periodic         97.36576            1            4  #  O_2_M Zn4+2 O_2_M
    10 cosine/periodic         25.39208            1            4  #  H_ Zn6f3 N_2
    11 cosine/periodic         70.47472            1            4  #  N_2 Zn6f3 O_2_M
    12 cosine/periodic         69.42201            1            4  #  N_2 Zn6f3 O_3_M
    13 cosine/periodic         24.38538            1            4  #  H_ Zn6f3 O_2_M
    14 cosine/periodic         23.92551            1            4  #  H_ Zn6f3 O_3_M
    15 cosine/periodic         65.96675            1            4  #  O_2_M Zn6f3 O_3_M
    16 cosine/periodic         67.02484            1            4  #  O_2_M Zn6f3 O_2_M
    17 cosine/periodic         43.63912            1            1  #  O_3_M H_ Zn4+2
    18 cosine/periodic         25.05849            1            1  #  O_3_M H_ Zn6f3
    19 cosine/periodic        179.74893           -1            3  #  C_R C_R N_2
    20 cosine/periodic        102.18328           -1            3  #  C_R C_R C_R
    21 cosine/periodic        111.29751           -1            3  #  C_R C_R C_R
    22 cosine/periodic         57.28902           -1            3  #  C_R C_R H_
    23 cosine/periodic        134.57449           -1            3  #  C_R C_R O_3_M
    24 cosine/periodic        196.20752           -1            3  #  O_3_M C_R O_3_M
    25 cosine/periodic        137.71425           -1            3  #  C_R C_R O_2_M
    26 cosine/periodic        206.77843           -1            3  #  O_2_M C_R O_2_M
    27 cosine/periodic        201.38050           -1            3  #  O_2_M C_R O_3_M
    28 fourier                 84.89470      0.36401      0.41847      0.28800  #  C_R N_2 Zn4+2
    29 fourier                 48.02888      0.36401      0.41847      0.28800  #  C_R N_2 Zn6f3
    30 cosine/periodic         21.77718           -1            3  #  C_R O_2_M Zn6f3
    31 fourier                 22.33312      0.30023      0.26733      0.26675  #  H_ O_3_M Zn6f3
    32 fourier                 55.81766      0.30023      0.26733      0.26675  #  C_R O_3_M Zn6f3
    33 fourier                203.65891      0.30023      0.26733      0.26675  #  C_R O_3_M H_
    34 cosine/periodic         37.72922           -1            3  #  C_R O_2_M Zn4+2
    35 fourier                 41.31289      0.30023      0.26733      0.26675  #  H_ O_3_M Zn4+2
    36 fourier                 99.02913      0.30023      0.26733      0.26675  #  C_R O_3_M Zn4+2

Dihedral Coeffs

    1       6.73711           -1            2  #  X C_R C_R X bond order=1.5
    2      27.96100           -1            2  #  X C_R N_2 X bond order=3.0
    3       1.25000           -1            2  #  X C_R C_R X bond order=1.0
    4       0.31957           -1            2  #  X C_R O_3_M X bond order=1.5
    5       6.73711           -1            2  #  X C_R O_2_M X bond order=1.5

Improper Coeffs

    1       2.00000      1.00000     -1.00000      0.00000            1  #  C_R X X X O_2 present=False
    2      16.66667      1.00000     -1.00000      0.00000            1  #  C_R X X X O_2 present=True

Atoms # a, b, c, alpha, beta, gamma: 22.0040515430, 29.9881137199, 29.9881204642, 85.5629382883, 89.9898572633, 89.9304850513 $$$atoms$$$

    1 1     6      0.00000      3.60790     14.64794      0.24640   #   Zn1   0.16315669   0.48782114   0.00824122
    2 1     7      0.00000      6.53829     14.64537      0.24706   #   Zn2   0.29633203   0.48773366   0.00826333
    3 1     2      0.00000      9.32994      2.50339      1.54327   #    H1   0.42386599   0.07948608   0.05161742
    4 1     2      0.00000      2.58341      1.71121      2.53120   #    H2   0.11730205   0.05051340   0.08466053
    5 1     2      0.00000      3.82518      3.66335      3.36796   #    H3   0.17362491   0.11344528   0.11264743
    6 1     2      0.00000      2.96117      5.95403      2.98926   #    H4   0.13423427   0.19081153   0.09998123
    7 1     2      0.00000      0.84387      6.29085      1.74827   #    H5   0.03799702   0.20525454   0.05847390
    8 1     2      0.00000     10.59421      4.36309      0.87784   #    H6   0.48122264   0.14322258   0.02936106
    9 1     2      0.00000      4.44587     13.91073      1.29503   #    H7   0.20127597   0.46052411   0.04331465
   10 1     2      0.00000      6.17686     11.68390     13.33893   #    H8   0.28002008   0.35510268   0.44614417
   11 1     2      0.00000      6.16150      9.24311     13.33361   #    H9   0.27945658   0.27372421   0.44596617
   12 1     2      0.00000      3.97221      8.08820      2.10791   #   H10   0.18006784   0.26425943   0.07050267
   13 1     2      0.00000      3.96489     10.52861      2.10106   #   H11   0.17960070   0.34565628   0.07027354
   14 1     2      0.00000      3.00926      6.21734      0.91491   #   H12   0.13641308   0.20495942   0.03060076
   15 1     2      0.00000      3.00883      3.77652      0.92816   #   H13   0.13652814   0.12353227   0.03104409
   16 1     2      0.00000      7.11062      4.92952     14.51657   #   H14   0.32282369   0.12681997   0.48553269
   17 1     2      0.00000      7.11807      7.36991     14.52808   #   H15   0.32302743   0.20816871   0.48591765
   18 1     2      0.00000      4.33055     14.78506     14.53635   #   H16   0.19593662   0.45541734   0.48619406
   19 1     2      0.00000      6.37330      2.20284     10.95394   #   H17   0.28947914   0.04511319   0.36637387
   20 1     2      0.00000      6.36118      2.02073      8.51992   #   H18   0.28894752   0.04533866   0.28496378
   21 1     2      0.00000      3.77072     13.58436      8.78902   #   H19   0.17058239   0.43024946   0.29396430
   22 1     2      0.00000      3.76175     13.78114     11.22148   #   H20   0.17015455   0.43051736   0.37532230
   23 1     2      0.00000      2.95641     14.73318      6.82235   #   H21   0.13351922   0.47364773   0.22818578
   24 1     2      0.00000      2.95693     14.53093      4.38990   #   H22   0.13356354   0.47319753   0.14682789
   25 1     2      0.00000      7.16928      0.40412      4.31982   #   H23   0.32577788   0.00229830   0.14448421
   26 1     2      0.00000      7.17282      0.58100      6.75383   #   H24   0.32591952   0.00189839   0.22589381
   27 1     2      0.00000      6.26904     14.95087      0.96182   #   H25   0.28407590   0.49607132   0.03216990
   28 1     1      0.00000      0.98770      0.56202      0.63998   #    C1   0.04485399   0.01708554   0.02140519
   29 1     1      0.00000      0.23474      1.69715      1.13351   #    C2   0.01057008   0.05366117   0.03791220
   30 1     1      0.00000      9.89170      1.67208      1.13745   #    C3   0.44944348   0.05281479   0.03804388
   31 1     1      0.00000      9.13063      0.54943      0.64345   #    C4   0.41491931   0.01665674   0.02152117
   32 1     1      0.00000      0.97858      2.87780      1.64987   #    C5   0.04430774   0.09169556   0.05518275
   33 1     1      0.00000      2.19027      2.70322      2.34678   #    C6   0.09938148   0.08407055   0.07849211
   34 1     1      0.00000      2.89811      3.80863      2.82851   #    C7   0.13148715   0.11968564   0.09460446
   35 1     1      0.00000      2.41093      5.09980      2.61641   #    C8   0.10927650   0.16329077   0.08751055
   36 1     1      0.00000      1.21599      5.28893      1.91937   #    C9   0.05496300   0.17140119   0.06419673
   37 1     1      0.00000      0.50296      4.18754      1.43590   #   C10   0.02262134   0.13592454   0.04802634
   38 1     1      0.00000      5.06965     10.71873      0.24572   #   C11   0.22980444   0.35679719   0.00821855
   39 1     1      0.00000      5.69232     11.16372     14.15581   #   C12   0.25802504   0.33564266   0.47346635
   40 1     1      0.00000      5.69049      9.76596     14.15656   #   C13   0.25801904   0.28903031   0.47349125
   41 1     1      0.00000      5.06519      7.89240      0.24628   #   C14   0.22975760   0.26254714   0.00823719
   42 1     1      0.00000      4.44496      8.60890      1.28458   #   C15   0.20152704   0.28375329   0.04296511
   43 1     1      0.00000      4.44775     10.00671      1.28443   #   C16   0.20157670   0.33036585   0.04296009
   44 1     1      0.00000      5.06267      6.40688      0.24686   #   C17   0.22972491   0.21300875   0.00825651
   45 1     1      0.00000      3.91367      5.69395      0.63102   #   C18   0.17754486   0.18824092   0.02110543
   46 1     1      0.00000      3.91122      4.29619      0.63098   #   C19   0.17751052   0.14163060   0.02110440
   47 1     1      0.00000      5.05848      3.58054      0.24774   #   C20   0.22969011   0.11875783   0.00828622
   48 1     1      0.00000      6.20985      5.45193     14.81340   #   C21   0.28185708   0.14347236   0.49546053
   49 1     1      0.00000      6.21193      6.84974     14.81237   #   C22   0.28187444   0.19008723   0.49542593
   50 1     1      0.00000      5.07649     15.50363     11.27963   #   C23   0.22980939   0.48780616   0.37726725
   51 1     1      0.00000      5.79674      1.41040     10.49319   #   C24   0.26332210   0.01988008   0.35096355
   52 1     1      0.00000      5.79627      1.30154      9.09968   #   C25   0.26331223   0.01985585   0.30435501
   53 1     1      0.00000      5.07490     15.28455      8.46179   #   C26   0.22975993   0.48779172   0.28301976
   54 1     1      0.00000      4.33632     14.38460      9.24966   #   C27   0.19624114   0.45574276   0.30937125
   55 1     1      0.00000      4.33767     14.49276     10.64328   #   C28   0.19629128   0.45574343   0.35598339
   56 1     1      0.00000      5.07385     15.16913      6.98076   #   C29   0.22972444   0.48777535   0.23348410
   57 1     1      0.00000      3.88843     14.86791      6.28788   #   C30   0.17587052   0.47952363   0.21030923
   58 1     1      0.00000      3.88743     14.75990      4.89430   #   C31   0.17583659   0.47952761   0.16369852
   59 1     1      0.00000      5.07249     14.94969      4.16296   #   C32   0.22968517   0.48774884   0.13923753
   60 1     1      0.00000      6.25755     15.25013      4.85435   #   C33   0.28352236   0.49597862   0.16236254
   61 1     1      0.00000      6.25830     15.35925      6.24790   #   C34   0.28354509   0.49601146   0.20897221
   62 1     1      0.00000      5.07267     14.78184      2.68244   #   C35   0.22970805   0.48598277   0.08971906
   63 1     1      0.00000      5.07622     15.67149     12.76014   #   C36   0.22978212   0.48957259   0.42678553
   64 1     1      0.00000      5.05709      2.09151      0.19422   #   C37   0.22970943   0.06924208   0.00649595
   65 1     1      0.00000      5.07094     12.20776      0.29924   #   C38   0.22978070   0.40631275   0.01000867
   66 1     3      0.00000      1.60799     14.64970      0.24584   #    N1   0.07226833   0.48788118   0.00822254
   67 1     3      0.00000      8.53820     14.64372      0.24751   #    N2   0.38722039   0.48767728   0.00827836
   68 1     4      0.00000      6.18819     15.72679     13.25726   #    O1   0.28031232   0.49013028   0.44341271
   69 1     5      0.00000      6.18479     14.72458      2.18582   #    O2   0.28025485   0.48535836   0.07310853
   70 1     4      0.00000      6.16870      1.59081      0.17656   #    O3   0.28025528   0.05259130   0.00590528
   71 1     4      0.00000      6.18344     12.70651      0.31740   #    O4   0.28031184   0.42289734   0.01061593
   72 1     4      0.00000      3.94456      1.59276      0.17606   #    O5   0.17917683   0.05265746   0.00588862
   73 1     5      0.00000      3.96066     14.72654      2.18532   #    O6   0.17917640   0.48542506   0.07309185
   74 1     4      0.00000      3.96406     15.72875     13.25675   #    O7   0.17923387   0.49019696   0.44339549
   75 1     5      0.00000      3.95931     12.70847      0.31688   #    O8   0.17923339   0.42296402   0.01059874
   76 1     6      0.00000      3.61056     15.80794     15.19552   #   Zn1   0.16315669   0.48782114   0.50824122
   77 1     7      0.00000      6.54095     15.80537     15.19618   #   Zn2   0.29633203   0.48773366   0.50826333
   78 1     2      0.00000      9.33259      3.66339     16.49239   #    H1   0.42386599   0.07948608   0.55161742
   79 1     2      0.00000      2.58606      2.87121     17.48032   #    H2   0.11730205   0.05051340   0.58466053
   80 1     2      0.00000      3.82783      4.82335     18.31708   #    H3   0.17362491   0.11344528   0.61264743
   81 1     2      0.00000      2.96383      7.11403     17.93839   #    H4   0.13423427   0.19081153   0.59998123
   82 1     2      0.00000      0.84652      7.45085     16.69739   #    H5   0.03799702   0.20525454   0.55847390
   83 1     2      0.00000     10.59687      5.52309     15.82697   #    H6   0.48122264   0.14322258   0.52936106
   84 1     2      0.00000      4.44853     15.07073     16.24415   #    H7   0.20127597   0.46052411   0.54331465
   85 1     2      0.00000      6.17952     12.84390     28.28805   #    H8   0.28002008   0.35510268   0.94614417
   86 1     2      0.00000      6.16416     10.40310     28.28273   #    H9   0.27945658   0.27372421   0.94596617
   87 1     2      0.00000      3.97487      9.24820     17.05703   #   H10   0.18006784   0.26425943   0.57050267
   88 1     2      0.00000      3.96755     11.68860     17.05018   #   H11   0.17960070   0.34565628   0.57027354
   89 1     2      0.00000      3.01191      7.37733     15.86403   #   H12   0.13641308   0.20495942   0.53060076
   90 1     2      0.00000      3.01149      4.93652     15.87729   #   H13   0.13652814   0.12353227   0.53104409
   91 1     2      0.00000      7.11328      6.08952     29.46570   #   H14   0.32282369   0.12681997   0.98553269
   92 1     2      0.00000      7.12072      8.52991     29.47721   #   H15   0.32302743   0.20816871   0.98591765
   93 1     2      0.00000      4.33320     15.94506     29.48547   #   H16   0.19593662   0.45541734   0.98619406
   94 1     2      0.00000      6.37595      3.36284     25.90306   #   H17   0.28947914   0.04511319   0.86637387
   95 1     2      0.00000      6.36383      3.18073     23.46904   #   H18   0.28894752   0.04533866   0.78496378
   96 1     2      0.00000      3.77337     14.74435     23.73814   #   H19   0.17058239   0.43024946   0.79396430
   97 1     2      0.00000      3.76440     14.94114     26.17060   #   H20   0.17015455   0.43051736   0.87532230
   98 1     2      0.00000      2.95906     15.89318     21.77148   #   H21   0.13351922   0.47364773   0.72818578
   99 1     2      0.00000      2.95959     15.69093     19.33902   #   H22   0.13356354   0.47319753   0.64682789
  100 1     2      0.00000      7.17194      1.56412     19.26895   #   H23   0.32577788   0.00229830   0.64448421
  101 1     2      0.00000      7.17547      1.74100     21.70295   #   H24   0.32591952   0.00189839   0.72589381
  102 1     2      0.00000      6.27169     16.11086     15.91095   #   H25   0.28407590   0.49607132   0.53216990
  103 1     1      0.00000      0.99036      1.72202     15.58910   #    C1   0.04485399   0.01708554   0.52140519
  104 1     1      0.00000      0.23739      2.85715     16.08263   #    C2   0.01057008   0.05366117   0.53791220
  105 1     1      0.00000      9.89436      2.83207     16.08657   #    C3   0.44944348   0.05281479   0.53804388
  106 1     1      0.00000      9.13328      1.70943     15.59257   #    C4   0.41491931   0.01665674   0.52152117
  107 1     1      0.00000      0.98123      4.03780     16.59899   #    C5   0.04430774   0.09169556   0.55518275
  108 1     1      0.00000      2.19292      3.86321     17.29590   #    C6   0.09938148   0.08407055   0.57849211
  109 1     1      0.00000      2.90076      4.96862     17.77763   #    C7   0.13148715   0.11968564   0.59460446
  110 1     1      0.00000      2.41359      6.25980     17.56553   #    C8   0.10927650   0.16329077   0.58751055
  111 1     1      0.00000      1.21864      6.44893     16.86849   #    C9   0.05496300   0.17140119   0.56419673
  112 1     1      0.00000      0.50562      5.34754     16.38502   #   C10   0.02262134   0.13592454   0.54802634
  113 1     1      0.00000      5.07231     11.87873     15.19484   #   C11   0.22980444   0.35679719   0.50821855
  114 1     1      0.00000      5.69498     12.32372     29.10493   #   C12   0.25802504   0.33564266   0.97346635
  115 1     1      0.00000      5.69315     10.92596     29.10568   #   C13   0.25801904   0.28903031   0.97349125
  116 1     1      0.00000      5.06785      9.05240     15.19540   #   C14   0.22975760   0.26254714   0.50823719
  117 1     1      0.00000      4.44762      9.76890     16.23370   #   C15   0.20152704   0.28375329   0.54296511
  118 1     1      0.00000      4.45041     11.16671     16.23355   #   C16   0.20157670   0.33036585   0.54296009
  119 1     1      0.00000      5.06533      7.56688     15.19598   #   C17   0.22972491   0.21300875   0.50825651
  120 1     1      0.00000      3.91632      6.85395     15.58014   #   C18   0.17754486   0.18824092   0.52110543
  121 1     1      0.00000      3.91387      5.45619     15.58011   #   C19   0.17751052   0.14163060   0.52110440
  122 1     1      0.00000      5.06113      4.74054     15.19687   #   C20   0.22969011   0.11875783   0.50828622
  123 1     1      0.00000      6.21250      6.61193     29.76252   #   C21   0.28185708   0.14347236   0.99546053
  124 1     1      0.00000      6.21458      8.00974     29.76149   #   C22   0.28187444   0.19008723   0.99542593
  125 1     1      0.00000      5.07914     16.66363     26.22875   #   C23   0.22980939   0.48780616   0.87726725
  126 1     1      0.00000      5.79939      2.57040     25.44232   #   C24   0.26332210   0.01988008   0.85096355
  127 1     1      0.00000      5.79893      2.46154     24.04880   #   C25   0.26331223   0.01985585   0.80435501
  128 1     1      0.00000      5.07755     16.44454     23.41092   #   C26   0.22975993   0.48779172   0.78301976
  129 1     1      0.00000      4.33898     15.54459     24.19878   #   C27   0.19624114   0.45574276   0.80937125
  130 1     1      0.00000      4.34033     15.65275     25.59240   #   C28   0.19629128   0.45574343   0.85598339
  131 1     1      0.00000      5.07651     16.32913     21.92989   #   C29   0.22972444   0.48777535   0.73348410
  132 1     1      0.00000      3.89108     16.02791     21.23700   #   C30   0.17587052   0.47952363   0.71030923
  133 1     1      0.00000      3.89009     15.91990     19.84342   #   C31   0.17583659   0.47952761   0.66369852
  134 1     1      0.00000      5.07514     16.10968     19.11208   #   C32   0.22968517   0.48774884   0.63923753
  135 1     1      0.00000      6.26020     16.41013     19.80348   #   C33   0.28352236   0.49597862   0.66236254
  136 1     1      0.00000      6.26095     16.51925     21.19702   #   C34   0.28354509   0.49601146   0.70897221
  137 1     1      0.00000      5.07532     15.94184     17.63156   #   C35   0.22970805   0.48598277   0.58971906
  138 1     1      0.00000      5.07887     16.83149     27.70926   #   C36   0.22978212   0.48957259   0.92678553
  139 1     1      0.00000      5.05975      3.25151     15.14334   #   C37   0.22970943   0.06924208   0.50649595
  140 1     1      0.00000      5.07360     13.36776     15.24836   #   C38   0.22978070   0.40631275   0.51000867
  141 1     3      0.00000      1.61064     15.80970     15.19496   #    N1   0.07226833   0.48788118   0.50822254
  142 1     3      0.00000      8.54086     15.80371     15.19663   #    N2   0.38722039   0.48767728   0.50827836
  143 1     4      0.00000      6.19085     16.88678     28.20638   #    O1   0.28031232   0.49013028   0.94341271
  144 1     5      0.00000      6.18744     15.88458     17.13494   #    O2   0.28025485   0.48535836   0.57310853
  145 1     4      0.00000      6.17135      2.75081     15.12568   #    O3   0.28025528   0.05259130   0.50590528
  146 1     4      0.00000      6.18609     13.86651     15.26652   #    O4   0.28031184   0.42289734   0.51061593
  147 1     4      0.00000      3.94722      2.75276     15.12518   #    O5   0.17917683   0.05265746   0.50588862
  148 1     5      0.00000      3.96331     15.88654     17.13444   #    O6   0.17917640   0.48542506   0.57309185
  149 1     4      0.00000      3.96671     16.88874     28.20587   #    O7   0.17923387   0.49019696   0.94339549
  150 1     5      0.00000      3.96196     13.86847     15.26601   #    O8   0.17923339   0.42296402   0.51059874
  151 1     6      0.00000      3.62609     29.64199      0.24640   #   Zn1   0.16315669   0.98782114   0.00824122
  152 1     7      0.00000      6.55649     29.63942      0.24706   #   Zn2   0.29633203   0.98773366   0.00826333
  153 1     2      0.00000      9.34813     17.49743      1.54327   #    H1   0.42386599   0.57948608   0.05161742
  154 1     2      0.00000      2.60160     16.70526      2.53120   #    H2   0.11730205   0.55051340   0.08466053
  155 1     2      0.00000      3.84337     18.65739      3.36796   #    H3   0.17362491   0.61344528   0.11264743
  156 1     2      0.00000      2.97936     20.94808      2.98926   #    H4   0.13423427   0.69081153   0.09998123
  157 1     2      0.00000      0.86206     21.28490      1.74827   #    H5   0.03799702   0.70525454   0.05847390
  158 1     2      0.00000     10.61241     19.35714      0.87784   #    H6   0.48122264   0.64322258   0.02936106
  159 1     2      0.00000      4.46406     28.90477      1.29503   #    H7   0.20127597   0.96052411   0.04331465
  160 1     2      0.00000      6.19506     26.67795     13.33893   #    H8   0.28002008   0.85510268   0.44614417
  161 1     2      0.00000      6.17970     24.23715     13.33361   #    H9   0.27945658   0.77372421   0.44596617
  162 1     2      0.00000      3.99040     23.08225      2.10791   #   H10   0.18006784   0.76425943   0.07050267
  163 1     2      0.00000      3.98308     25.52265      2.10106   #   H11   0.17960070   0.84565628   0.07027354
  164 1     2      0.00000      3.02745     21.21138      0.91491   #   H12   0.13641308   0.70495942   0.03060076
  165 1     2      0.00000      3.02702     18.77057      0.92816   #   H13   0.13652814   0.62353227   0.03104409
  166 1     2      0.00000      7.12881     19.92357     14.51657   #   H14   0.32282369   0.62681997   0.48553269
  167 1     2      0.00000      7.13626     22.36395     14.52808   #   H15   0.32302743   0.70816871   0.48591765
  168 1     2      0.00000      4.34874     29.77911     14.53635   #   H16   0.19593662   0.95541734   0.48619406
  169 1     2      0.00000      6.39149     17.19689     10.95394   #   H17   0.28947914   0.54511319   0.36637387
  170 1     2      0.00000      6.37937     17.01478      8.51992   #   H18   0.28894752   0.54533866   0.28496378
  171 1     2      0.00000      3.78891     28.57840      8.78902   #   H19   0.17058239   0.93024946   0.29396430
  172 1     2      0.00000      3.77994     28.77519     11.22148   #   H20   0.17015455   0.93051736   0.37532230
  173 1     2      0.00000      2.97460     29.72723      6.82235   #   H21   0.13351922   0.97364773   0.22818578
  174 1     2      0.00000      2.97513     29.52498      4.38990   #   H22   0.13356354   0.97319753   0.14682789
  175 1     2      0.00000      7.18748     15.39817      4.31982   #   H23   0.32577788   0.50229830   0.14448421
  176 1     2      0.00000      7.19101     15.57505      6.75383   #   H24   0.32591952   0.50189839   0.22589381
  177 1     2      0.00000      6.28723     29.94491      0.96182   #   H25   0.28407590   0.99607132   0.03216990
  178 1     1      0.00000      1.00590     15.55607      0.63998   #    C1   0.04485399   0.51708554   0.02140519
  179 1     1      0.00000      0.25293     16.69120      1.13351   #    C2   0.01057008   0.55366117   0.03791220
  180 1     1      0.00000      9.90989     16.66612      1.13745   #    C3   0.44944348   0.55281479   0.03804388
  181 1     1      0.00000      9.14882     15.54348      0.64345   #    C4   0.41491931   0.51665674   0.02152117
  182 1     1      0.00000      0.99677     17.87184      1.64987   #    C5   0.04430774   0.59169556   0.05518275
  183 1     1      0.00000      2.20846     17.69726      2.34678   #    C6   0.09938148   0.58407055   0.07849211
  184 1     1      0.00000      2.91630     18.80267      2.82851   #    C7   0.13148715   0.61968564   0.09460446
  185 1     1      0.00000      2.42912     20.09385      2.61641   #    C8   0.10927650   0.66329077   0.08751055
  186 1     1      0.00000      1.23418     20.28298      1.91937   #    C9   0.05496300   0.67140119   0.06419673
  187 1     1      0.00000      0.52115     19.18158      1.43590   #   C10   0.02262134   0.63592454   0.04802634
  188 1     1      0.00000      5.08785     25.71278      0.24572   #   C11   0.22980444   0.85679719   0.00821855
  189 1     1      0.00000      5.71051     26.15777     14.15581   #   C12   0.25802504   0.83564266   0.47346635
  190 1     1      0.00000      5.70869     24.76001     14.15656   #   C13   0.25801904   0.78903031   0.47349125
  191 1     1      0.00000      5.08339     22.88644      0.24628   #   C14   0.22975760   0.76254714   0.00823719
  192 1     1      0.00000      4.46316     23.60294      1.28458   #   C15   0.20152704   0.78375329   0.04296511
  193 1     1      0.00000      4.46594     25.00075      1.28443   #   C16   0.20157670   0.83036585   0.04296009
  194 1     1      0.00000      5.08086     21.40093      0.24686   #   C17   0.22972491   0.71300875   0.00825651
  195 1     1      0.00000      3.93186     20.68800      0.63102   #   C18   0.17754486   0.68824092   0.02110543
  196 1     1      0.00000      3.92941     19.29024      0.63098   #   C19   0.17751052   0.64163060   0.02110440
  197 1     1      0.00000      5.07667     18.57459      0.24774   #   C20   0.22969011   0.61875783   0.00828622
  198 1     1      0.00000      6.22804     20.44597     14.81340   #   C21   0.28185708   0.64347236   0.49546053
  199 1     1      0.00000      6.23012     21.84378     14.81237   #   C22   0.28187444   0.69008723   0.49542593
  200 1     1      0.00000      5.09468     30.49768     11.27963   #   C23   0.22980939   0.98780616   0.37726725
  201 1     1      0.00000      5.81493     16.40445     10.49319   #   C24   0.26332210   0.51988008   0.35096355
  202 1     1      0.00000      5.81447     16.29559      9.09968   #   C25   0.26331223   0.51985585   0.30435501
  203 1     1      0.00000      5.09309     30.27859      8.46179   #   C26   0.22975993   0.98779172   0.28301976
  204 1     1      0.00000      4.35452     29.37864      9.24966   #   C27   0.19624114   0.95574276   0.30937125
  205 1     1      0.00000      4.35587     29.48680     10.64328   #   C28   0.19629128   0.95574343   0.35598339
  206 1     1      0.00000      5.09205     30.16318      6.98076   #   C29   0.22972444   0.98777535   0.23348410
  207 1     1      0.00000      3.90662     29.86196      6.28788   #   C30   0.17587052   0.97952363   0.21030923
  208 1     1      0.00000      3.90563     29.75394      4.89430   #   C31   0.17583659   0.97952761   0.16369852
  209 1     1      0.00000      5.09068     29.94373      4.16296   #   C32   0.22968517   0.98774884   0.13923753
  210 1     1      0.00000      6.27574     30.24418      4.85435   #   C33   0.28352236   0.99597862   0.16236254