Created by Ryther's code on 2025-07-29 22:46:55.373966, modified by xyan11@uic.edu. 

    448 atoms
    512 bonds
    880 angles
    1008 dihedrals
    208 impropers

    5 atom types
    7 bond types
    11 angle types
    4 dihedral types
    2 improper types

0.00000000 29.85451772 xlo xhi
0.00000000 30.98066955 ylo yhi
0.00000000 21.20288769 zlo zhi
0.31660443 5.036e-05 2.60441703 xy xz yz 

Masses 

    1    12.0107  #   C
    2    1.00794  #   H
    3    14.0067  #   N
    4    15.9994  #   O
    5      65.38  #  Zn

Pair Coeffs

    1       0.10500      3.43085  #  C_R C_R
    2       0.04400      2.57113  #  H_ H_
    3       0.06900      3.26069  #  N_2 N_2
    4       0.06000      3.11815  #  O_2_M O_2_M
    5       0.06000      2.58361  #  Zn6f3 Zn6f3

Bond Coeffs

    1      54.94924      2.40433  #  O_2_M Zn6f3 bond order=0.5
    2      55.07699      2.48452  #  N_2 Zn6f3 bond order=0.5
    3     357.44038      1.08142  #  C_R H_ bond order=1.0
    4     931.53598      1.20133  #  C_R N_2 bond order=3.0
    5     462.65505      1.37926  #  C_R C_R bond order=1.5
    6     391.66951      1.45800  #  C_R C_R bond order=1.0
    7     714.55744      1.26901  #  C_R O_2_M bond order=1.5

Angle Coeffs

    1  cosine/periodic         70.47472            1            4  #  N_2 Zn6f3 O_2_M
    2  cosine/periodic         67.02484            1            4  #  O_2_M Zn6f3 O_2_M
    3  cosine/periodic        179.74893           -1            3  #  C_R C_R N_2
    4  cosine/periodic        111.29751           -1            3  #  C_R C_R C_R
    5  cosine/periodic         57.28902           -1            3  #  C_R C_R H_
    6  cosine/periodic         51.62857           -1            3  #  C_R C_R H_
    7  cosine/periodic        102.18328           -1            3  #  C_R C_R C_R
    8  cosine/periodic        137.71425           -1            3  #  C_R C_R O_2_M
    9  cosine/periodic        206.77843           -1            3  #  O_2_M C_R O_2_M
    10 fourier                 48.02888      0.36401      0.41847      0.28800  #  C_R N_2 Zn6f3
    11 cosine/periodic         21.77718           -1            3  #  C_R O_2_M Zn6f3

Dihedral Coeffs

    1      27.96100           -1            2  #  X C_R N_2 X bond order=3.0
    2       6.73711           -1            2  #  X C_R C_R X bond order=1.5
    3       1.25000           -1            2  #  X C_R C_R X bond order=1.0
    4       6.73711           -1            2  #  X C_R O_2_M X bond order=1.5

Improper Coeffs

    1       2.00000      1.00000     -1.00000      0.00000            1  #  C_R X X X O_2 present=False
    2      16.66667      1.00000     -1.00000      0.00000            1  #  C_R X X X O_2 present=True

Atoms # a, b, c, alpha, beta, gamma: 29.8545177173, 30.9822872640, 21.3622432009, 82.9976246927, 89.9998649384, 89.4144908318 $$$atoms$$$

    1 1     5      0.00000     14.59213     15.42978      5.90424   #   Zn1   0.48374057   0.47463606   0.27846403
    2 1     5      0.00000      2.59526     15.42974      5.90420   #   Zn2   0.08189641   0.47463484   0.27846200
    3 1     2      0.00000      9.82597     14.78467      3.84713   #    H1   0.32422892   0.46196908   0.18144355
    4 1     2      0.00000      7.36142     14.78467      3.84713   #    H2   0.24167709   0.46196914   0.18144355
    5 1     2      0.00000      7.36142     16.07495      7.96120   #    H3   0.24140805   0.48730537   0.37547715
    6 1     2      0.00000      9.82597     16.07494      7.96120   #    H4   0.32395984   0.48730534   0.37547716
    7 1     2      0.00000      1.32168     11.30896      7.12525   #    H5   0.04069863   0.33678253   0.33605083
    8 1     2      0.00000      0.69159     10.72995      4.18685   #    H6   0.01966819   0.32974316   0.19746581
    9 1     2      0.00000      2.20529      9.29455      7.39346   #    H7   0.07099667   0.27069753   0.34870064
   10 1     2      0.00000      2.24847      6.92564      7.93822   #    H8   0.07327659   0.19207332   0.37439324
   11 1     2      0.00000     14.82393      6.07464      4.41498   #    H9   0.49464475   0.17857364   0.20822562
   12 1     2      0.00000     14.78076      8.44355      3.87023   #   H10   0.49236489   0.25719785   0.18253301
   13 1     2      0.00000      1.41037      4.63924      7.62160   #   H11   0.04597339   0.11952798   0.35946040
   14 1     2      0.00000      0.78027      4.06022      4.68320   #   H12   0.02494242   0.11248854   0.22087552
   15 1     2      0.00000     14.34995     13.61424      1.97605   #   H13   0.47608523   0.43160832   0.09319701
   16 1     2      0.00000     14.34997     14.61889     10.15502   #   H14   0.47608522   0.43160834   0.47894499
   17 1     2      0.00000      2.67858      1.75447      9.83289   #   H15   0.08953303   0.01764530   0.46375230
   18 1     2      0.00000      2.67856      0.74971      1.65307   #   H16   0.08953300   0.01764528   0.07796449
   19 1     1      0.00000     11.43496     15.42981      5.90416   #    C1   0.37798875   0.47463722   0.27846035
   20 1     1      0.00000      9.99549     15.42981      5.90416   #    C2   0.32977250   0.47463725   0.27846032
   21 1     1      0.00000      9.29312     15.06697      4.74726   #    C3   0.30632196   0.46751252   0.22389697
   22 1     1      0.00000      7.89427     15.06697      4.74726   #    C4   0.25946630   0.46751253   0.22389691
   23 1     1      0.00000      7.19191     15.42981      5.90416   #    C5   0.23586447   0.47463720   0.27846034
   24 1     1      0.00000      5.75243     15.42981      5.90416   #    C6   0.18764818   0.47463723   0.27846031
   25 1     1      0.00000      7.89427     15.79264      7.06106   #    C7   0.25931497   0.48176193   0.33302369
   26 1     1      0.00000      9.29312     15.79264      7.06107   #    C8   0.30617063   0.48176192   0.33302375
   27 1     1      0.00000      1.13001     11.50576      6.07990   #    C9   0.03416734   0.34727942   0.28674878
   28 1     1      0.00000      0.94254     10.49787      5.21570   #   C10   0.02819644   0.31817298   0.24599018
   29 1     1      0.00000      1.00284      9.06415      5.59431   #   C11   0.03072296   0.27039384   0.26384681
   30 1     1      0.00000      1.68135      8.61013      6.74128   #   C12   0.05365358   0.25119139   0.31794169
   31 1     1      0.00000      1.71871      7.24720      7.04945   #   C13   0.05538457   0.20597648   0.33247605
   32 1     1      0.00000      1.09912      6.30504      6.21413   #   C14   0.03491848   0.17887731   0.29307945
   33 1     1      0.00000      0.42062      6.75906      5.06716   #   C15   0.01198790   0.19807975   0.23898457
   34 1     1      0.00000      0.38325      8.12199      4.75899   #   C16   0.01025684   0.24329467   0.22445020
   35 1     1      0.00000      1.15943      4.87132      6.59274   #   C17   0.03744505   0.13109816   0.31093607
   36 1     1      0.00000      0.97194      3.86343      5.72854   #   C18   0.03147391   0.10199169   0.27017753
   37 1     1      0.00000      1.13012     14.95088      2.00559   #   C19   0.03282064   0.47463555   0.09459054
   38 1     1      0.00000      0.17296     14.12771      1.38770   #   C20   0.00101555   0.45051508   0.06544854
   39 1     1      0.00000      0.17295     13.95728      0.00016   #   C21   0.00101553   0.45051511   0.00000747
   40 1     1      0.00000      1.13014     15.90864      9.80285   #   C22   0.03282061   0.47463557   0.46233575
   41 1     1      0.00000      2.08651     16.73119     10.42077   #   C23   0.06459944   0.49873605   0.49147876
   42 1     1      0.00000      2.08649     15.59943      1.20697   #   C24   0.06459944   0.49873604   0.05692491
   43 1     1      0.00000      1.13010     15.67437      8.33139   #   C25   0.03283789   0.47290781   0.39293645
   44 1     1      0.00000      1.13006     15.18516      3.47705   #   C26   0.03280015   0.47636363   0.16398961
   45 1     1      0.00000      0.97183      2.37349      5.74205   #   C27   0.03198073   0.05384565   0.27081470
   46 1     1      0.00000      1.13003     12.99569      6.06639   #   C28   0.03365728   0.39542528   0.28611143
   47 1     3      0.00000     12.59222     15.42981      5.90416   #    N1   0.41675200   0.47463723   0.27846034
   48 1     3      0.00000      4.59517     15.42981      5.90416   #    N2   0.14888493   0.47463723   0.27846032
   49 1     4      0.00000      2.24211     15.26371      3.97088   #    O1   0.07004292   0.47694124   0.18727992
   50 1     4      0.00000      2.24216     15.59578      7.83753   #    O2   0.07009314   0.47232895   0.36964443
   51 1     4      0.00000      2.08386      1.87345      5.74662   #    O3   0.06940047   0.03768728   0.27103023
   52 1     4      0.00000      2.24210     13.49570      6.06178   #    O4   0.07073556   0.41158291   0.28589408
   53 1     4      0.00000     14.78699      1.87348      5.74666   #    O5   0.49490138   0.03768799   0.27103195
   54 1     4      0.00000     14.94528     15.59582      7.83756   #    O6   0.49559405   0.47233018   0.36964609
   55 1     4      0.00000     14.94523     15.26375      3.97089   #    O7   0.49554383   0.47694245   0.18728082
   56 1     4      0.00000     14.94522     13.49574      6.06180   #    O8   0.49623647   0.41158413   0.28589503
   57 1     5      0.00000     14.59215     16.73199     16.50569   #   Zn1   0.48374057   0.47463606   0.77846403
   58 1     5      0.00000      2.59529     16.73194     16.50564   #   Zn2   0.08189641   0.47463484   0.77846200
   59 1     2      0.00000      9.82599     16.08687     14.44857   #    H1   0.32422892   0.46196908   0.68144355
   60 1     2      0.00000      7.36145     16.08688     14.44857   #    H2   0.24167709   0.46196914   0.68144355
   61 1     2      0.00000      7.36145     17.37715     18.56264   #    H3   0.24140805   0.48730537   0.87547715
   62 1     2      0.00000      9.82599     17.37715     18.56264   #    H4   0.32395984   0.48730534   0.87547716
   63 1     2      0.00000      1.32171     12.61117     17.72669   #    H5   0.04069863   0.33678253   0.83605083
   64 1     2      0.00000      0.69162     12.03216     14.78829   #    H6   0.01966819   0.32974316   0.69746581
   65 1     2      0.00000      2.20532     10.59676     17.99490   #    H7   0.07099667   0.27069753   0.84870064
   66 1     2      0.00000      2.24849      8.22784     18.53966   #    H8   0.07327659   0.19207332   0.87439324
   67 1     2      0.00000     14.82395      7.37685     15.01643   #    H9   0.49464475   0.17857364   0.70822562
   68 1     2      0.00000     14.78078      9.74576     14.47167   #   H10   0.49236489   0.25719785   0.68253301
   69 1     2      0.00000      1.41040      5.94145     18.22304   #   H11   0.04597339   0.11952798   0.85946040
   70 1     2      0.00000      0.78029      5.36243     15.28464   #   H12   0.02494242   0.11248854   0.72087552
   71 1     2      0.00000     14.34997     14.91645     12.57749   #   H13   0.47608523   0.43160832   0.59319701
   72 1     2      0.00000     14.34999     15.92110     20.75646   #   H14   0.47608522   0.43160834   0.97894499
   73 1     2      0.00000      2.67860      3.05668     20.43433   #   H15   0.08953303   0.01764530   0.96375230
   74 1     2      0.00000      2.67858      2.05192     12.25452   #   H16   0.08953300   0.01764528   0.57796449
   75 1     1      0.00000     11.43498     16.73201     16.50561   #    C1   0.37798875   0.47463722   0.77846035
   76 1     1      0.00000      9.99551     16.73202     16.50561   #    C2   0.32977250   0.47463725   0.77846032
   77 1     1      0.00000      9.29315     16.36918     15.34871   #    C3   0.30632196   0.46751252   0.72389697
   78 1     1      0.00000      7.89429     16.36918     15.34870   #    C4   0.25946630   0.46751253   0.72389691
   79 1     1      0.00000      7.19193     16.73201     16.50561   #    C5   0.23586447   0.47463720   0.77846034
   80 1     1      0.00000      5.75246     16.73201     16.50561   #    C6   0.18764818   0.47463723   0.77846031
   81 1     1      0.00000      7.89429     17.09485     17.66251   #    C7   0.25931497   0.48176193   0.83302369
   82 1     1      0.00000      9.29315     17.09485     17.66251   #    C8   0.30617063   0.48176192   0.83302375
   83 1     1      0.00000      1.13004     12.80797     16.68135   #    C9   0.03416734   0.34727942   0.78674878
   84 1     1      0.00000      0.94256     11.80008     15.81715   #   C10   0.02819644   0.31817298   0.74599018
   85 1     1      0.00000      1.00287     10.36636     16.19576   #   C11   0.03072296   0.27039384   0.76384681
   86 1     1      0.00000      1.68137      9.91234     17.34273   #   C12   0.05365358   0.25119139   0.81794169
   87 1     1      0.00000      1.71873      8.54940     17.65090   #   C13   0.05538457   0.20597648   0.83247605
   88 1     1      0.00000      1.09915      7.60725     16.81557   #   C14   0.03491848   0.17887731   0.79307945
   89 1     1      0.00000      0.42064      8.06127     15.66861   #   C15   0.01198790   0.19807975   0.73898457
   90 1     1      0.00000      0.38328      9.42420     15.36044   #   C16   0.01025684   0.24329467   0.72445020
   91 1     1      0.00000      1.15945      6.17352     17.19419   #   C17   0.03744505   0.13109816   0.81093607
   92 1     1      0.00000      0.97197      5.16563     16.32999   #   C18   0.03147391   0.10199169   0.77017753
   93 1     1      0.00000      1.13015     16.25309     12.60704   #   C19   0.03282064   0.47463555   0.59459054
   94 1     1      0.00000      0.17298     15.42992     11.98914   #   C20   0.00101555   0.45051508   0.56544854
   95 1     1      0.00000      0.17298     15.25949     10.60160   #   C21   0.00101553   0.45051511   0.50000747
   96 1     1      0.00000      1.13016     17.21085     20.40430   #   C22   0.03282061   0.47463557   0.96233575
   97 1     1      0.00000      2.08654     18.03340     21.02221   #   C23   0.06459944   0.49873605   0.99147876
   98 1     1      0.00000      2.08652     16.90164     11.80842   #   C24   0.06459944   0.49873604   0.55692491
   99 1     1      0.00000      1.13013     16.97658     18.93283   #   C25   0.03283789   0.47290781   0.89293645
  100 1     1      0.00000      1.13008     16.48737     14.07850   #   C26   0.03280015   0.47636363   0.66398961
  101 1     1      0.00000      0.97186      3.67570     16.34350   #   C27   0.03198073   0.05384565   0.77081470
  102 1     1      0.00000      1.13005     14.29790     16.66783   #   C28   0.03365728   0.39542528   0.78611143
  103 1     3      0.00000     12.59224     16.73201     16.50561   #    N1   0.41675200   0.47463723   0.77846034
  104 1     3      0.00000      4.59520     16.73201     16.50561   #    N2   0.14888493   0.47463723   0.77846032
  105 1     4      0.00000      2.24213     16.56592     14.57232   #    O1   0.07004292   0.47694124   0.68727992
  106 1     4      0.00000      2.24218     16.89798     18.43897   #    O2   0.07009314   0.47232895   0.86964443
  107 1     4      0.00000      2.08389      3.17566     16.34807   #    O3   0.06940047   0.03768728   0.77103023
  108 1     4      0.00000      2.24212     14.79791     16.66322   #    O4   0.07073556   0.41158291   0.78589408
  109 1     4      0.00000     14.78701      3.17569     16.34810   #    O5   0.49490138   0.03768799   0.77103195
  110 1     4      0.00000     14.94531     16.89803     18.43901   #    O6   0.49559405   0.47233018   0.86964609
  111 1     4      0.00000     14.94526     16.56596     14.57234   #    O7   0.49554383   0.47694245   0.68728082
  112 1     4      0.00000     14.94525     14.79795     16.66324   #    O8   0.49623647   0.41158413   0.78589503
  113 1     5      0.00000     14.75043     30.92011      5.90424   #   Zn1   0.48374057   0.97463606   0.27846403
  114 1     5      0.00000      2.75357     30.92007      5.90420   #   Zn2   0.08189641   0.97463484   0.27846200
  115 1     2      0.00000      9.98427     30.27500      3.84713   #    H1   0.32422892   0.96196908   0.18144355
  116 1     2      0.00000      7.51973     30.27500      3.84713   #    H2   0.24167709   0.96196914   0.18144355
  117 1     2      0.00000      7.51973     31.56528      7.96120   #    H3   0.24140805   0.98730537   0.37547715
  118 1     2      0.00000      9.98427     31.56528      7.96120   #    H4   0.32395984   0.98730534   0.37547716
  119 1     2      0.00000      1.47998     26.79930      7.12525   #    H5   0.04069863   0.83678253   0.33605083
  120 1     2      0.00000      0.84989     26.22028      4.18685   #    H6   0.01966819   0.82974316   0.19746581
  121 1     2      0.00000      2.36360     24.78489      7.39346   #    H7   0.07099667   0.77069753   0.34870064
  122 1     2      0.00000      2.40677     22.41597      7.93822   #    H8   0.07327659   0.69207332   0.37439324
  123 1     2      0.00000     14.98223     21.56497      4.41498   #    H9   0.49464475   0.67857364   0.20822562
  124 1     2      0.00000     14.93906     23.93389      3.87023   #   H10   0.49236489   0.75719785   0.18253301
  125 1     2      0.00000      1.56868     20.12958      7.62160   #   H11   0.04597339   0.61952798   0.35946040
  126 1     2      0.00000      0.93857     19.55056      4.68320   #   H12   0.02494242   0.61248854   0.22087552
  127 1     2      0.00000     14.50825     29.10457      1.97605   #   H13   0.47608523   0.93160832   0.09319701
  128 1     2      0.00000     14.50827     30.10922     10.15502   #   H14   0.47608522   0.93160834   0.47894499
  129 1     2      0.00000      2.83688     17.24480      9.83289   #   H15   0.08953303   0.51764530   0.46375230
  130 1     2      0.00000      2.83686     16.24005      1.65307   #   H16   0.08953300   0.51764528   0.07796449
  131 1     1      0.00000     11.59326     30.92014      5.90416   #    C1   0.37798875   0.97463722   0.27846035
  132 1     1      0.00000     10.15379     30.92014      5.90416   #    C2   0.32977250   0.97463725   0.27846032
  133 1     1      0.00000      9.45142     30.55731      4.74726   #    C3   0.30632196   0.96751252   0.22389697
  134 1     1      0.00000      8.05257     30.55731      4.74726   #    C4   0.25946630   0.96751253   0.22389691
  135 1     1      0.00000      7.35021     30.92014      5.90416   #    C5   0.23586447   0.97463720   0.27846034
  136 1     1      0.00000      5.91073     30.92014      5.90416   #    C6   0.18764818   0.97463723   0.27846031
  137 1     1      0.00000      8.05257     31.28297      7.06106   #    C7   0.25931497   0.98176193   0.33302369
  138 1     1      0.00000      9.45142     31.28297      7.06107   #    C8   0.30617063   0.98176192   0.33302375
  139 1     1      0.00000      1.28832     26.99610      6.07990   #    C9   0.03416734   0.84727942   0.28674878
  140 1     1      0.00000      1.10084     25.98821      5.21570   #   C10   0.02819644   0.81817298   0.24599018
  141 1     1      0.00000      1.16114     24.55448      5.59431   #   C11   0.03072296   0.77039384   0.26384681
  142 1     1      0.00000      1.83965     24.10047      6.74128   #   C12   0.05365358   0.75119139   0.31794169
  143 1     1      0.00000      1.87701     22.73753      7.04945   #   C13   0.05538457   0.70597648   0.33247605
  144 1     1      0.00000      1.25742     21.79537      6.21413   #   C14   0.03491848   0.67887731   0.29307945
  145 1     1      0.00000      0.57892     22.24939      5.06716   #   C15   0.01198790   0.69807975   0.23898457
  146 1     1      0.00000      0.54155     23.61233      4.75899   #   C16   0.01025684   0.74329467   0.22445020
  147 1     1      0.00000      1.31773     20.36165      6.59274   #   C17   0.03744505   0.63109816   0.31093607
  148 1     1      0.00000      1.13025     19.35376      5.72854   #   C18   0.03147391   0.60199169   0.27017753
  149 1     1      0.00000      1.28842     30.44122      2.00559   #   C19   0.03282064   0.97463555   0.09459054
  150 1     1      0.00000      0.33126     29.61805      1.38770   #   C20   0.00101555   0.95051508   0.06544854
  151 1     1      0.00000      0.33126     29.44761      0.00016   #   C21   0.00101553   0.95051511   0.00000747
  152 1     1      0.00000      1.28844     31.39898      9.80285   #   C22   0.03282061   0.97463557   0.46233575
  153 1     1      0.00000      2.24481     32.22153     10.42077   #   C23   0.06459944   0.99873605   0.49147876
  154 1     1      0.00000      2.24479     31.08977      1.20697   #   C24   0.06459944   0.99873604   0.05692491
  155 1     1      0.00000      1.28841     31.16471      8.33139   #   C25   0.03283789   0.97290781   0.39293645
  156 1     1      0.00000      1.28836     30.67550      3.47705   #   C26   0.03280015   0.97636363   0.16398961
  157 1     1      0.00000      1.13013     17.86382      5.74205   #   C27   0.03198073   0.55384565   0.27081470
  158 1     1      0.00000      1.28833     28.48603      6.06639   #   C28   0.03365728   0.89542528   0.28611143
  159 1     3      0.00000     12.75052     30.92014      5.90416   #    N1   0.41675200   0.97463723   0.27846034
  160 1     3      0.00000      4.75348     30.92014      5.90416   #    N2   0.14888493   0.97463723   0.27846032
  161 1     4      0.00000      2.40041     30.75405      3.97088   #    O1   0.07004292   0.97694124   0.18727992
  162 1     4      0.00000      2.40046     31.08611      7.83753   #    O2   0.07009314   0.97232895   0.36964443
  163 1     4      0.00000      2.24217     17.36379      5.74662   #    O3   0.06940047   0.53768728   0.27103023
  164 1     4      0.00000      2.40040     28.98604      6.06178   #    O4   0.07073556   0.91158291   0.28589408
  165 1     4      0.00000     14.94529     17.36381      5.74666   #    O5   0.49490138   0.53768799   0.27103195
  166 1     4      0.00000     15.10358     31.08615      7.83756   #    O6   0.49559405   0.97233018   0.36964609
  167 1     4      0.00000     15.10354     30.75409      3.97089   #    O7   0.49554383   0.97694245   0.18728082
  168 1     4      0.00000     15.10353     28.98608      6.06180   #    O8   0.49623647   0.91158413   0.28589503
  169 1     5      0.00000     14.75045     32.22232     16.50569   #   Zn1   0.48374057   0.97463606   0.77846403
  170 1     5      0.00000      2.75359     32.22228     16.50564   #   Zn2   0.08189641   0.97463484   0.77846200
  171 1     2      0.00000      9.98430     31.57721     14.44857   #    H1   0.32422892   0.96196908   0.68144355
  172 1     2      0.00000      7.51975     31.57721     14.44857   #    H2   0.24167709   0.96196914   0.68144355
  173 1     2      0.00000      7.51975     32.86749     18.56264   #    H3   0.24140805   0.98730537   0.87547715
  174 1     2      0.00000      9.98429     32.86749     18.56264   #    H4   0.32395984   0.98730534   0.87547716
  175 1     2      0.00000      1.48001     28.10151     17.72669   #    H5   0.04069863   0.83678253   0.83605083
  176 1     2      0.00000      0.84992     27.52249     14.78829   #    H6   0.01966819   0.82974316   0.69746581
  177 1     2      0.00000      2.36362     26.08710     17.99490   #    H7   0.07099667   0.77069753   0.84870064
  178 1     2      0.00000      2.40679     23.71818     18.53966   #    H8   0.07327659   0.69207332   0.87439324
  179 1     2      0.00000     14.98226     22.86718     15.01643   #    H9   0.49464475   0.67857364   0.70822562
  180 1     2      0.00000     14.93908     25.23610     14.47167   #   H10   0.49236489   0.75719785   0.68253301
  181 1     2      0.00000      1.56870     21.43178     18.22304   #   H11   0.04597339   0.61952798   0.85946040
  182 1     2      0.00000      0.93860     20.85277     15.28464   #   H12   0.02494242   0.61248854   0.72087552
  183 1     2      0.00000     14.50828     30.40678     12.57749   #   H13   0.47608523   0.93160832   0.59319701
  184 1     2      0.00000     14.50830     31.41143     20.75646   #   H14   0.47608522   0.93160834   0.97894499
  185 1     2      0.00000      2.83690     18.54701     20.43433   #   H15   0.08953303   0.51764530   0.96375230
  186 1     2      0.00000      2.83688     17.54226     12.25452   #   H16   0.08953300   0.51764528   0.57796449
  187 1     1      0.00000     11.59329     32.22235     16.50561   #    C1   0.37798875   0.97463722   0.77846035
  188 1     1      0.00000     10.15381     32.22235     16.50561   #    C2   0.32977250   0.97463725   0.77846032
  189 1     1      0.00000      9.45145     31.85952     15.34871   #    C3   0.30632196   0.96751252   0.72389697
  190 1     1      0.00000      8.05260     31.85952     15.34870   #    C4   0.25946630   0.96751253   0.72389691
  191 1     1      0.00000      7.35023     32.22235     16.50561   #    C5   0.23586447   0.97463720   0.77846034
  192 1     1      0.00000      5.91076     32.22235     16.50561   #    C6   0.18764818   0.97463723   0.77846031
  193 1     1      0.00000      8.05260     32.58518     17.66251   #    C7   0.25931497   0.98176193   0.83302369
  194 1     1      0.00000      9.45145     32.58518     17.66251   #    C8   0.30617063   0.98176192   0.83302375
  195 1     1      0.00000      1.28834     28.29831     16.68135   #    C9   0.03416734   0.84727942   0.78674878
  196 1     1      0.00000      1.10087     27.29042     15.81715   #   C10   0.02819644   0.81817298   0.74599018
  197 1     1      0.00000      1.16117     25.85669     16.19576   #   C11   0.03072296   0.77039384   0.76384681
  198 1     1      0.00000      1.83967     25.40267     17.34273   #   C12   0.05365358   0.75119139   0.81794169
  199 1     1      0.00000      1.87704     24.03974     17.65090   #   C13   0.05538457   0.70597648   0.83247605
  200 1     1      0.00000      1.25745     23.09758     16.81557   #   C14   0.03491848   0.67887731   0.79307945
  201 1     1      0.00000      0.57895     23.55160     15.66861   #   C15   0.01198790   0.69807975   0.73898457
  202 1     1      0.00000      0.54158     24.91454     15.36044   #   C16   0.01025684   0.74329467   0.72445020
  203 1     1      0.00000      1.31775     21.66386     17.19419   #   C17   0.03744505   0.63109816   0.81093607
  204 1     1      0.00000      1.13027     20.65597     16.32999   #   C18   0.03147391   0.60199169   0.77017753
  205 1     1      0.00000      1.28845     31.74342     12.60704   #   C19   0.03282064   0.97463555   0.59459054
  206 1     1      0.00000      0.33128     30.92026     11.98914   #   C20   0.00101555   0.95051508   0.56544854
  207 1     1      0.00000      0.33128     30.74982     10.60160   #   C21   0.00101553   0.95051511   0.50000747
  208 1     1      0.00000      1.28847     32.70119     20.40430   #   C22   0.03282061   0.97463557   0.96233575
  209 1     1      0.00000      2.24484     33.52374     21.02221   #   C23   0.06459944   0.99873605   0.99147876
  210 1     1      0.00000      2.24482     32.39198     11.80842   #   C24   0.06459944   0.99873604   0.55692491
  211 1     1      0.00000      1.28843     32.46691     18.93283   #   C25   0.03283789   0.97290781   0.89293645
  212 1     1      0.00000      1.28839     31.97770     14.07850   #   C26   0.03280015   0.97636363   0.66398961
  213 1     1      0.00000      1.13016     19.16603     16.34350   #   C27   0.03198073   0.55384565   0.77081470
  214 1     1      0.00000      1.28836     29.78824     16.66783   #   C28   0.03365728   0.89542528   0.78611143
  215 1     3      0.00000     12.75054     32.22235     16.50561   #    N1   0.41675200   0.97463723   0.77846034
  216 1     3      0.00000      4.75350     32.22235     16.50561   #    N2   0.14888493   0.97463723   0.77846032
  217 1     4      0.00000      2.40044     32.05626     14.57232   #    O1   0.07004292   0.97694124   0.68727992
  218 1     4      0.00000      2.40048     32.38832     18.43897   #    O2   0.07009314   0.97232895   0.86964443
  219 1     4      0.00000      2.24219     18.66600     16.34807   #    O3   0.06940047   0.53768728   0.77103023
  220 1     4      0.00000      2.40043     30.28824     16.66322   #    O4   0.07073556   0.91158291   0.78589408
  221 1     4      0.00000     14.94532     18.66602     16.34810   #    O5   0.49490138   0.53768799   0.77103195
  222 1     4      0.00000     15.10361     32.38836     18.43901   #    O6   0.49559405   0.97233018   0.86964609
  223 1     4      0.00000     15.10356     32.05630     14.57234   #    O7   0.49554383   0.97694245   0.68728082
  224 1     4      0.00000     15.10355     30.28828     16.66324   #    O8   0.49623647   0.91158413   0.78589503
  225 1     5      0.00000     29.51939     15.42978      5.90424   #   Zn1   0.98374057   0.47463606   0.27846403
  226 1     5      0.00000     17.52252     15.42974      5.90420   #   Zn2   0.58189641   0.47463484   0.27846200
  227 1     2      0.00000     24.75323     14.78467      3.84713   #    H1   0.82422892   0.46196908   0.18144355
  228 1     2      0.00000     22.28868     14.78467      3.84713   #    H2   0.74167709   0.46196914   0.18144355
  229 1     2      0.00000     22.28868     16.07495      7.96120   #    H3   0.74140805   0.48730537   0.37547715
  230 1     2      0.00000     24.75323     16.07494      7.96120   #    H4   0.82395984   0.48730534   0.37547716
  231 1     2      0.00000     16.24894     11.30896      7.12525   #    H5   0.54069863   0.33678253   0.33605083
  232 1     2      0.00000     15.61885     10.72995      4.18685   #    H6   0.51966819   0.32974316   0.19746581
  233 1     2      0.00000     17.13255      9.29455      7.39346   #    H7   0.57099667   0.27069753   0.34870064
  234 1     2      0.00000     17.17573      6.92564      7.93822   #    H8   0.57327659   0.19207332   0.37439324
  235 1     2      0.00000     29.75119      6.07464      4.41498   #    H9   0.99464475   0.17857364   0.20822562
  236 1     2      0.00000     29.70801      8.44355      3.87023   #   H10   0.99236489   0.25719785   0.18253301