Created by Ryther's code on 2025-08-05 19:28:19.493643, modified by xyan11@uic.edu. 

    632 atoms
    728 bonds
    1400 angles
    1408 dihedrals
    272 impropers

    9 atom types
    17 bond types
    29 angle types
    8 dihedral types
    2 improper types

0.00000000 34.9152047 xlo xhi
0.00000000 20.58919587 ylo yhi
0.00000000 20.51430929 zlo zhi
-0.61242643 -1.03559383 1.57365342 xy xz yz 

Masses 

    1    12.0107  #   C
    2    12.0107  #   C
    3    1.00794  #   H
    4    14.0067  #   N
    5    15.9994  #   O
    6    15.9994  #   O
    7     32.065  #   S
    8      65.38  #  Zn
    9      65.38  #  Zn

Pair Coeffs

    1       0.10500      3.43085  #  C_3 C_3
    2       0.10500      3.43085  #  C_R C_R
    3       0.04400      2.57113  #  H_ H_
    4       0.06900      3.26069  #  N_2 N_2
    5       0.06000      3.11815  #  O_2_M O_2_M
    6       0.06000      3.11815  #  O_3 O_3
    7       0.27400      3.59478  #  S_3 S_3
    8       0.12400      2.46155  #  Zn4+2 Zn4+2
    9       0.04000      2.67270  #  Zn8f4 Zn8f4

Bond Coeffs

    1      43.57940      2.59350  #  N_2 Zn8f4 bond order=0.5
    2      43.32822      2.51269  #  O_2_M Zn8f4 bond order=0.5
    3      18.86555      2.24262  #  H_ Zn8f4 bond order=0.5
    4     103.61325      2.20128  #  N_2 Zn4+2 bond order=0.5
    5      48.90184      1.84943  #  H_ Zn4+2 bond order=0.5
    6     104.44141      2.12294  #  O_2_M Zn4+2 bond order=0.5
    7     357.44038      1.08142  #  C_R H_ bond order=1.0
    8      97.41657      1.20000  #  H_ H_ bond order=1.0
    9     331.06939      1.10940  #  C_3 H_ bond order=1.0
    10    931.53598      1.20133  #  C_R N_2 bond order=3.0
    11    462.65505      1.37926  #  C_R C_R bond order=1.5
    12    391.66951      1.45800  #  C_R C_R bond order=1.0
    13    301.29678      1.78592  #  C_R S_3 bond order=1.0
    14    287.64195      1.81375  #  C_3 S_3 bond order=1.0
    15    572.46041      1.36631  #  C_R O_3 bond order=1.0
    16    539.20166      1.39385  #  C_3 O_3 bond order=1.0
    17    714.55744      1.26901  #  C_R O_2_M bond order=1.5

Angle Coeffs

    1  fourier                 71.45583      0.34375      0.37500      0.28125  #  N_2 Zn8f4 O_2_M
    2  fourier                 25.79329      0.34375      0.37500      0.28125  #  H_ Zn8f4 N_2
    3  fourier                 67.80662      0.34375      0.37500      0.28125  #  O_2_M Zn8f4 O_2_M
    4  fourier                 24.62448      0.34375      0.37500      0.28125  #  H_ Zn8f4 O_2_M
    5  cosine/periodic         37.39156            1            4  #  H_ Zn4+2 N_2
    6  cosine/periodic        101.82219            1            4  #  N_2 Zn4+2 O_2_M
    7  cosine/periodic         14.11273            1            4  #  H_ Zn4+2 H_
    8  cosine/periodic         36.20045            1            4  #  H_ Zn4+2 O_2_M
    9  cosine/periodic         97.36576            1            4  #  O_2_M Zn4+2 O_2_M
    10 cosine/periodic          5.21519            1            1  #  H_ H_ Zn8f4
    11 cosine/periodic          5.70658            1            1  #  Zn4+2 H_ Zn8f4
    12 cosine/periodic         10.90893            1            1  #  H_ H_ Zn4+2
    13 cosine/periodic        179.74893           -1            3  #  C_R C_R N_2
    14 cosine/periodic        111.29751           -1            3  #  C_R C_R C_R
    15 cosine/periodic         57.28902           -1            3  #  C_R C_R H_
    16 cosine/periodic        102.18328           -1            3  #  C_R C_R C_R
    17 cosine/periodic        101.95051           -1            3  #  C_R C_R S_3
    18 fourier                 75.49653      0.34375      0.37500      0.28125  #  H_ C_3 H_
    19 fourier                112.46207      0.34375      0.37500      0.28125  #  H_ C_3 S_3
    20 cosine/periodic        135.76992           -1            3  #  C_R C_R O_3
    21 fourier                165.75867      0.34375      0.37500      0.28125  #  H_ C_3 O_3
    22 cosine/periodic        206.77843           -1            3  #  O_2_M C_R O_2_M
    23 cosine/periodic        137.71425           -1            3  #  C_R C_R O_2_M
    24 fourier                206.63494      0.25101      0.03669      0.25034  #  C_3 S_3 C_R
    25 fourier                 38.69249      0.36401      0.41847      0.28800  #  C_R N_2 Zn8f4
    26 fourier                 84.89470      0.36401      0.41847      0.28800  #  C_R N_2 Zn4+2
    27 fourier                320.94891      0.30023      0.26733      0.26675  #  C_3 O_3 C_R
    28 cosine/periodic         37.72922           -1            3  #  C_R O_2_M Zn4+2
    29 cosine/periodic         17.67091           -1            3  #  C_R O_2_M Zn8f4

Dihedral Coeffs

    1      27.96100           -1            2  #  X C_R N_2 X bond order=3.0
    2       6.73711           -1            2  #  X C_R C_R X bond order=1.5
    3       1.25000           -1            2  #  X C_R C_R X bond order=1.0
    4       1.22984           -1            2  #  X C_R S_3 X bond order=1.0
    5       0.16879            1            3  #  X C_3 S_3 X bond order=1.0
    6       0.23717           -1            2  #  X C_R O_3 X bond order=1.0
    7       0.03255            1            3  #  X C_3 O_3 X bond order=1.0
    8       6.73711           -1            2  #  X C_R O_2_M X bond order=1.5

Improper Coeffs

    1       2.00000      1.00000     -1.00000      0.00000            1  #  C_R X X X O_2 present=False
    2      16.66667      1.00000     -1.00000      0.00000            1  #  C_R X X X O_2 present=True

Atoms # a, b, c, alpha, beta, gamma: 34.9152046987, 20.5983021754, 20.6006243932, 85.5350356021, 92.8814745496, 91.7037628194 $$$atoms$$$

    1 1     9      0.00000     14.14812      5.21500      6.51729   #   Zn1   0.41865355   0.22900624   0.31769459
    2 1     8      0.00000     -0.38374      5.30132      6.65803   #   Zn2   0.00271697   0.23267459   0.32455562
    3 1     3      0.00000      8.88779      5.37534      7.62843   #    H1   0.26966391   0.23265439   0.37185876
    4 1     3      0.00000      4.87659      4.38348      6.01152   #    H2   0.15170275   0.19050463   0.29304010
    5 1     3      0.00000      3.33585      5.77979      9.77668   #    H3   0.11396191   0.24429423   0.47657854
    6 1     3      0.00000      6.08976      4.73688      0.53471   #    H4   0.17918939   0.22807390   0.02606508
    7 1     3      0.00000      7.46196      4.68717      9.45786   #    H5   0.23076601   0.19241447   0.46103719
    8 1     3      0.00000      6.30243      2.44082      5.79591   #    H6   0.19058727   0.09695461   0.28253022
    9 1     3      0.00000      8.19242      1.63076      4.44567   #    H7   0.24216403   0.06264138   0.21671075
   10 1     3      0.00000     10.42853      2.65177      4.67744   #    H8   0.30739797   0.11136748   0.22800867
   11 1     3      0.00000     15.70294      4.70854      7.12386   #    H9   0.46359059   0.20214814   0.34726278
   12 1     3      0.00000     15.43796      2.25312      4.66040   #   H10   0.45050898   0.09206885   0.22717809
   13 1     3      0.00000     15.22682      8.25193      4.65884   #   H11   0.44957002   0.38343153   0.22710210
   14 1     3      0.00000     15.71215     10.41050      8.34631   #   H12   0.47039964   0.47453290   0.40685332
   15 1     3      0.00000     13.73754      1.65738      3.04163   #   H14   0.39906517   0.06916541   0.14826876
   16 1     3      0.00000     13.40103      1.65011      0.60830   #   H15   0.38606203   0.07787817   0.02965232
   17 1     3      0.00000     12.08150      9.71460      7.76105   #   H16   0.36501419   0.44291416   0.37832391
   18 1     3      0.00000     11.59596     10.29178      9.40190   #   H17   0.35386481   0.46483401   0.45830951
   19 1     3      0.00000     12.83348      8.97470      9.22678   #   H18   0.38794446   0.40151716   0.44977307
   20 1     3      0.00000     16.03055      8.82994      0.19264   #   H19   0.46691643   0.42814495   0.00939043
   21 1     3      0.00000     16.39981      8.83910      2.62126   #   H20   0.48085270   0.41954147   0.12777714
   22 1     3      0.00000     16.14168      5.03825      6.07784   #   H21   0.47499343   0.22205935   0.29627306
   23 1     3      0.00000     13.93358      5.67533      3.45686   #   H22   0.40867620   0.26276687   0.16850948
   24 1     3      0.00000     13.61780      6.13933      9.44173   #   H23   0.40828923   0.26300453   0.46025114
   25 1     3      0.00000      0.08406      4.27370      1.58898   #   H24   0.00824197   0.20164965   0.07745732
   26 1     3      0.00000     16.08331      5.12350      7.17532   #   H25   0.47490937   0.22211073   0.34977125
   27 1     3      0.00000     11.54093      5.53001      2.88728   #   H26   0.33923852   0.25783084   0.14074444
   28 1     3      0.00000     10.73346      6.72447      1.80420   #   H27   0.31563447   0.31987972   0.08794835
   29 1     3      0.00000     12.15407      7.24213      2.78689   #   H28   0.35811942   0.34136079   0.13585086
   30 1     2      0.00000     11.10454      4.67493      6.31243   #    C1   0.33073994   0.20353882   0.30770855
   31 1     2      0.00000      9.80220      4.07644      6.17731   #    C2   0.29274351   0.17497401   0.30112219
   32 1     2      0.00000      8.72954      4.54881      6.94534   #    C3   0.26348434   0.19505526   0.33856058
   33 1     2      0.00000      7.45135      3.97261      6.81652   #    C4   0.22620712   0.16754967   0.33228099
   34 1     2      0.00000      6.31303      4.47155      7.62988   #    C5   0.19515280   0.18875250   0.37192970
   35 1     2      0.00000      5.03484      4.61783      7.05787   #    C6   0.15787928   0.19798852   0.34404605
   36 1     2      0.00000      3.96218      5.08840      7.82700   #    C7   0.12862010   0.21797779   0.38153845
   37 1     2      0.00000      2.65984      5.23917      7.23226   #    C8   0.09062747   0.22751680   0.35254703
   38 1     2      0.00000      4.15879      5.41558      9.17336   #    C9   0.13638840   0.22885262   0.44716870
   39 1     2      0.00000      5.42296      5.27361      9.74934   #   C10   0.17326961   0.21981111   0.47524605
   40 1     2      0.00000      6.49513      4.80526      8.98491   #   C11   0.20252302   0.19991186   0.43798246
   41 1     2      0.00000      7.26926      2.91594      5.90498   #   C12   0.21883331   0.11962411   0.28784673
   42 1     2      0.00000      8.34142      2.44675      5.14106   #   C13   0.24808664   0.09968220   0.25060827
   43 1     2      0.00000      9.60559      3.02454      5.27552   #   C14   0.28497150   0.12724398   0.25716280
   44 1     2      0.00000     15.72677      1.33194      6.58923   #   C15   0.46065843   0.04014137   0.32120163
   45 1     2      0.00000     15.52615      1.31792      5.19953   #   C16   0.45298212   0.04463838   0.25345863
   46 1     2      0.00000     15.15520     10.39951      4.49333   #   C17   0.44911997   0.48835458   0.21903391
   47 1     2      0.00000     15.29409      9.19044      5.19553   #   C18   0.45303698   0.42701468   0.25326362
   48 1     2      0.00000     15.49535      9.18439      6.58610   #   C19   0.46071576   0.42153991   0.32104919
   49 1     2      0.00000     15.55723     10.40706      7.27440   #   C20   0.46447996   0.47835956   0.35460112
   50 1     2      0.00000     14.94255     10.39535      3.02326   #   C21   0.44099640   0.49362932   0.14737324
   51 1     2      0.00000     14.32091      0.97859      2.43224   #   C22   0.41435383   0.03846752   0.11856308
   52 1     2      0.00000     14.12128      0.97232      1.04867   #   C23   0.40672113   0.04331768   0.05111919
   53 1     2      0.00000     14.84251      0.08945      0.23861   #   C24   0.42550715   0.00345562   0.01163160
   54 1     1      0.00000     12.44314      9.91761      8.78980   #   C25   0.37696487   0.44894127   0.42847158
   55 1     2      0.00000     15.46432      9.51105      0.81519   #   C26   0.45213870   0.45890632   0.03973749
   56 1     2      0.00000     15.66599      9.51378      2.19846   #   C27   0.45982663   0.45388550   0.10716727
   57 1     2      0.00000     15.80813      4.95825      2.67616   #   C28   0.46067626   0.23084728   0.13045346
   58 1     2      0.00000     14.48779      5.42444      2.56284   #   C29   0.42310134   0.25391218   0.12492951
   59 1     2      0.00000     13.88431      5.56651      1.29979   #   C30   0.40419449   0.26551797   0.06336031
   60 1     2      0.00000     14.61111      5.23887      0.15103   #   C31   0.42314567   0.25388501   0.00736230
   61 1     2      0.00000     15.93178      4.77125      0.24201   #   C32   0.46069794   0.23083402   0.01179736
   62 1     2      0.00000     16.52313      4.63381      1.50984   #   C33   0.47926784   0.21943504   0.07359959
   63 1     1      0.00000     11.71028      6.39883      2.21667   #   C34   0.34390329   0.30252725   0.10805489
   64 1     2      0.00000     15.49002      5.39143      9.02047   #   C35   0.46069259   0.22824941   0.43971615
   65 1     2      0.00000     15.73199      5.12490      4.15485   #   C36   0.46067885   0.23343227   0.20253420
   66 1     2      0.00000     15.54170      7.69604      6.53361   #   C37   0.46070280   0.34944749   0.31849042
   67 1     2      0.00000     15.68032      2.82028      6.64171   #   C38   0.46066860   0.11223342   0.32375996
   68 1     7      0.00000     14.06988      0.87302      8.72017   #    S1   0.41575475   0.00991291   0.42507766
   69 1     4      0.00000     12.15139      5.15608      6.42112   #    N1   0.36128266   0.22650318   0.31300689
   70 1     4      0.00000      1.61299      5.36033      6.75409   #    N2   0.06008786   0.23518297   0.32923800
   71 1     6      0.00000     12.56861      6.02847      1.14256   #    O1   0.36668833   0.28854077   0.05569558
   72 1     5      0.00000     16.81674      5.21353      4.70452   #    O2   0.49258134   0.23568910   0.22932888
   73 1     5      0.00000     16.62584      5.36831      8.57762   #    O3   0.49259228   0.22877628   0.41812865
   74 1     5      0.00000     16.66755      7.22931      6.56946   #    O4   0.49260010   0.32664524   0.32023798
   75 1     5      0.00000     16.77503      3.35254      6.71268   #    O5   0.49257349   0.13782015   0.32721950
   76 1     5      0.00000     14.44695      7.16378      6.46264   #    O6   0.42879699   0.32386067   0.31503071
   77 1     5      0.00000     14.40524      5.30280      8.47080   #    O7   0.42878917   0.22599250   0.41292135
   78 1     5      0.00000     14.59614      5.14802      4.59768   #    O8   0.42877824   0.23290530   0.22412079
   79 1     5      0.00000     14.55443      3.28702      6.60584   #    O9   0.42877039   0.13503634   0.32201147
   80 1     9      0.00000     13.63033      6.00182     16.77444   #   Zn1   0.41865355   0.22900624   0.81769459
   81 1     8      0.00000     -0.90154      6.08815     16.91519   #   Zn2   0.00271697   0.23267459   0.82455562
   82 1     3      0.00000      8.37000      6.16217     17.88558   #    H1   0.26966391   0.23265439   0.87185876
   83 1     3      0.00000      4.35880      5.17031     16.26867   #    H2   0.15170275   0.19050463   0.79304010
   84 1     3      0.00000      2.81805      6.56662     20.03383   #    H3   0.11396191   0.24429423   0.97657854
   85 1     3      0.00000      5.57197      5.52370     10.79186   #    H4   0.17918939   0.22807390   0.52606508
   86 1     3      0.00000      6.94416      5.47400     19.71501   #    H5   0.23076601   0.19241447   0.96103719
   87 1     3      0.00000      5.78463      3.22765     16.05307   #    H6   0.19058727   0.09695461   0.78253022
   88 1     3      0.00000      7.67462      2.41759     14.70283   #    H7   0.24216403   0.06264138   0.71671075
   89 1     3      0.00000      9.91074      3.43860     14.93460   #    H8   0.30739797   0.11136748   0.72800867
   90 1     3      0.00000     15.18514      5.49537     17.38101   #    H9   0.46359059   0.20214814   0.84726278
   91 1     3      0.00000     14.92017      3.03995     14.91756   #   H10   0.45050898   0.09206885   0.72717809
   92 1     3      0.00000     14.70902      9.03875     14.91600   #   H11   0.44957002   0.38343153   0.72710210
   93 1     3      0.00000     15.19435     11.19732     18.60347   #   H12   0.47039964   0.47453290   0.90685332
   94 1     3      0.00000     13.21974      2.44421     13.29879   #   H14   0.39906517   0.06916541   0.64826876
   95 1     3      0.00000     12.88324      2.43694     10.86545   #   H15   0.38606203   0.07787817   0.52965232
   96 1     3      0.00000     11.56371     10.50142     18.01821   #   H16   0.36501419   0.44291416   0.87832391
   97 1     3      0.00000     11.07817     11.07861     19.65906   #   H17   0.35386481   0.46483401   0.95830951
   98 1     3      0.00000     12.31568      9.76153     19.48394   #   H18   0.38794446   0.40151716   0.94977307
   99 1     3      0.00000     15.51275      9.61676     10.44979   #   H19   0.46691643   0.42814495   0.50939043
  100 1     3      0.00000     15.88201      9.62593     12.87841   #   H20   0.48085270   0.41954147   0.62777714
  101 1     3      0.00000     15.62388      5.82508     16.33499   #   H21   0.47499343   0.22205935   0.79627306
  102 1     3      0.00000     13.41578      6.46216     13.71401   #   H22   0.40867620   0.26276687   0.66850948
  103 1     3      0.00000     13.10000      6.92615     19.69889   #   H23   0.40828923   0.26300453   0.96025114
  104 1     3      0.00000     -0.43374      5.06052     11.84614   #   H24   0.00824197   0.20164965   0.57745732
  105 1     3      0.00000     15.56551      5.91033     17.43247   #   H25   0.47490937   0.22211073   0.84977125
  106 1     3      0.00000     11.02313      6.31684     13.14443   #   H26   0.33923852   0.25783084   0.64074444
  107 1     3      0.00000     10.21566      7.51129     12.06135   #   H27   0.31563447   0.31987972   0.58794835
  108 1     3      0.00000     11.63627      8.02895     13.04404   #   H28   0.35811942   0.34136079   0.63585086
  109 1     2      0.00000     10.58674      5.46175     16.56958   #    C1   0.33073994   0.20353882   0.80770855
  110 1     2      0.00000      9.28440      4.86326     16.43447   #    C2   0.29274351   0.17497401   0.80112219
  111 1     2      0.00000      8.21174      5.33563     17.20249   #    C3   0.26348434   0.19505526   0.83856058
  112 1     2      0.00000      6.93355      4.75943     17.07367   #    C4   0.22620712   0.16754967   0.83228099
  113 1     2      0.00000      5.79524      5.25838     17.88704   #    C5   0.19515280   0.18875250   0.87192970
  114 1     2      0.00000      4.51704      5.40466     17.31502   #    C6   0.15787928   0.19798852   0.84404605
  115 1     2      0.00000      3.44439      5.87522     18.08415   #    C7   0.12862010   0.21797779   0.88153845
  116 1     2      0.00000      2.14205      6.02600     17.48941   #    C8   0.09062747   0.22751680   0.85254703
  117 1     2      0.00000      3.64099      6.20241     19.43051   #    C9   0.13638840   0.22885262   0.94716870
  118 1     2      0.00000      4.90517      6.06043     20.00650   #   C10   0.17326961   0.21981111   0.97524605
  119 1     2      0.00000      5.97733      5.59208     19.24206   #   C11   0.20252302   0.19991186   0.93798246
  120 1     2      0.00000      6.75146      3.70276     16.16213   #   C12   0.21883331   0.11962411   0.78784673
  121 1     2      0.00000      7.82362      3.23357     15.39821   #   C13   0.24808664   0.09968220   0.75060827
  122 1     2      0.00000      9.08780      3.81136     15.53267   #   C14   0.28497150   0.12724398   0.75716280
  123 1     2      0.00000     15.20897      2.11877     16.84638   #   C15   0.46065843   0.04014137   0.82120163
  124 1     2      0.00000     15.00835      2.10475     15.45668   #   C16   0.45298212   0.04463838   0.75345863
  125 1     2      0.00000     14.63741     11.18634     14.75048   #   C17   0.44911997   0.48835458   0.71903391
  126 1     2      0.00000     14.77629      9.97726     15.45268   #   C18   0.45303698   0.42701468   0.75326362
  127 1     2      0.00000     14.97755      9.97121     16.84326   #   C19   0.46071576   0.42153991   0.82104919
  128 1     2      0.00000     15.03943     11.19388     17.53155   #   C20   0.46447996   0.47835956   0.85460112
  129 1     2      0.00000     14.42475     11.18217     13.28041   #   C21   0.44099640   0.49362932   0.64737324
  130 1     2      0.00000     13.80311      1.76542     12.68939   #   C22   0.41435383   0.03846752   0.61856308
  131 1     2      0.00000     13.60349      1.75915     11.30583   #   C23   0.40672113   0.04331768   0.55111919
  132 1     2      0.00000     14.32471      0.87628     10.49577   #   C24   0.42550715   0.00345562   0.51163160
  133 1     1      0.00000     11.92534     10.70443     19.04695   #   C25   0.37696487   0.44894127   0.92847158
  134 1     2      0.00000     14.94652     10.29787     11.07234   #   C26   0.45213870   0.45890632   0.53973749
  135 1     2      0.00000     15.14819     10.30061     12.45562   #   C27   0.45982663   0.45388550   0.60716727
  136 1     2      0.00000     15.29034      5.74508     12.93332   #   C28   0.46067626   0.23084728   0.63045346
  137 1     2      0.00000     13.96999      6.21127     12.82000   #   C29   0.42310134   0.25391218   0.62492951
  138 1     2      0.00000     13.36651      6.35334     11.55695   #   C30   0.40419449   0.26551797   0.56336031
  139 1     2      0.00000     14.09331      6.02570     10.40819   #   C31   0.42314567   0.25388501   0.50736230
  140 1     2      0.00000     15.41398      5.55808     10.49917   #   C32   0.46069794   0.23083402   0.51179736
  141 1     2      0.00000     16.00533      5.42064     11.76700   #   C33   0.47926784   0.21943504   0.57359959
  142 1     1      0.00000     11.19248      7.18566     12.47383   #   C34   0.34390329   0.30252725   0.60805489
  143 1     2      0.00000     14.97223      6.17826     19.27763   #   C35   0.46069259   0.22824941   0.93971615
  144 1     2      0.00000     15.21420      5.91173     14.41200   #   C36   0.46067885   0.23343227   0.70253420
  145 1     2      0.00000     15.02390      8.48286     16.79077   #   C37   0.46070280   0.34944749   0.81849042
  146 1     2      0.00000     15.16252      3.60711     16.89887   #   C38   0.46066860   0.11223342   0.82375996
  147 1     7      0.00000     13.55209      1.65985     18.97733   #    S1   0.41575475   0.00991291   0.92507766
  148 1     4      0.00000     11.63360      5.94291     16.67827   #    N1   0.36128266   0.22650318   0.81300689
  149 1     4      0.00000      1.09519      6.14716     17.01124   #    N2   0.06008786   0.23518297   0.82923800
  150 1     6      0.00000     12.05081      6.81529     11.39971   #    O1   0.36668833   0.28854077   0.55569558
  151 1     5      0.00000     16.29895      6.00036     14.96168   #    O2   0.49258134   0.23568910   0.72932888
  152 1     5      0.00000     16.10804      6.15514     18.83478   #    O3   0.49259228   0.22877628   0.91812865
  153 1     5      0.00000     16.14975      8.01613     16.82662   #    O4   0.49260010   0.32664524   0.82023798
  154 1     5      0.00000     16.25724      4.13936     16.96984   #    O5   0.49257349   0.13782015   0.82721950
  155 1     5      0.00000     13.92915      7.95061     16.71979   #    O6   0.42879699   0.32386067   0.81503071
  156 1     5      0.00000     13.88744      6.08963     18.72795   #    O7   0.42878917   0.22599250   0.91292135
  157 1     5      0.00000     14.07835      5.93485     14.85484   #    O8   0.42877824   0.23290530   0.72412079
  158 1     5      0.00000     14.03664      4.07385     16.86300   #    O9   0.42877039   0.13503634   0.82201147
  159 1     9      0.00000     13.84191     15.50959      6.51729   #   Zn1   0.41865355   0.72900624   0.31769459
  160 1     8      0.00000     -0.68995     15.59592      6.65803   #   Zn2   0.00271697   0.73267459   0.32455562
  161 1     3      0.00000      8.58158     15.66994      7.62843   #    H1   0.26966391   0.73265439   0.37185876
  162 1     3      0.00000      4.57038     14.67808      6.01152   #    H2   0.15170275   0.69050463   0.29304010
  163 1     3      0.00000      3.02964     16.07439      9.77668   #    H3   0.11396191   0.74429423   0.47657854
  164 1     3      0.00000      5.78355     15.03147      0.53471   #    H4   0.17918939   0.72807390   0.02606508
  165 1     3      0.00000      7.15574     14.98177      9.45786   #    H5   0.23076601   0.69241447   0.46103719
  166 1     3      0.00000      5.99622     12.73542      5.79591   #    H6   0.19058727   0.59695461   0.28253022
  167 1     3      0.00000      7.88621     11.92536      4.44567   #    H7   0.24216403   0.56264138   0.21671075
  168 1     3      0.00000     10.12232     12.94637      4.67744   #    H8   0.30739797   0.61136748   0.22800867
  169 1     3      0.00000     15.39672     15.00314      7.12386   #    H9   0.46359059   0.70214814   0.34726278
  170 1     3      0.00000     15.13175     12.54772      4.66040   #   H10   0.45050898   0.59206885   0.22717809
  171 1     3      0.00000     14.92061     18.54652      4.65884   #   H11   0.44957002   0.88343153   0.22710210
  172 1     3      0.00000     15.40594     20.70509      8.34631   #   H12   0.47039964   0.97453290   0.40685332
  173 1     3      0.00000     13.43132     11.95198      3.04163   #   H14   0.39906517   0.56916541   0.14826876
  174 1     3      0.00000     13.09482     11.94471      0.60830   #   H15   0.38606203   0.57787817   0.02965232
  175 1     3      0.00000     11.77529     20.00920      7.76105   #   H16   0.36501419   0.94291416   0.37832391
  176 1     3      0.00000     11.28975     20.58638      9.40190   #   H17   0.35386481   0.96483401   0.45830951
  177 1     3      0.00000     12.52727     19.26930      9.22678   #   H18   0.38794446   0.90151716   0.44977307
  178 1     3      0.00000     15.72434     19.12454      0.19264   #   H19   0.46691643   0.92814495   0.00939043
  179 1     3      0.00000     16.09359     19.13370      2.62126   #   H20   0.48085270   0.91954147   0.12777714
  180 1     3      0.00000     15.83547     15.33285      6.07784   #   H21   0.47499343   0.72205935   0.29627306
  181 1     3      0.00000     13.62737     15.96993      3.45686   #   H22   0.40867620   0.76276687   0.16850948
  182 1     3      0.00000     13.31158     16.43393      9.44173   #   H23   0.40828923   0.76300453   0.46025114
  183 1     3      0.00000     -0.22215     14.56829      1.58898   #   H24   0.00824197   0.70164965   0.07745732
  184 1     3      0.00000     15.77710     15.41810      7.17532   #   H25   0.47490937   0.72211073   0.34977125
  185 1     3      0.00000     11.23471     15.82461      2.88728   #   H26   0.33923852   0.75783084   0.14074444
  186 1     3      0.00000     10.42725     17.01906      1.80420   #   H27   0.31563447   0.81987972   0.08794835
  187 1     3      0.00000     11.84785     17.53672      2.78689   #   H28   0.35811942   0.84136079   0.13585086
  188 1     2      0.00000     10.79833     14.96953      6.31243   #    C1   0.33073994   0.70353882   0.30770855
  189 1     2      0.00000      9.49599     14.37103      6.17731   #    C2   0.29274351   0.67497401   0.30112219
  190 1     2      0.00000      8.42333     14.84341      6.94534   #    C3   0.26348434   0.69505526   0.33856058
  191 1     2      0.00000      7.14513     14.26721      6.81652   #    C4   0.22620712   0.66754967   0.33228099
  192 1     2      0.00000      6.00682     14.76615      7.62988   #    C5   0.19515280   0.68875250   0.37192970
  193 1     2      0.00000      4.72863     14.91243      7.05787   #    C6   0.15787928   0.69798852   0.34404605
  194 1     2      0.00000      3.65597     15.38299      7.82700   #    C7   0.12862010   0.71797779   0.38153845
  195 1     2      0.00000      2.35363     15.53377      7.23226   #    C8   0.09062747   0.72751680   0.35254703
  196 1     2      0.00000      3.85258     15.71018      9.17336   #    C9   0.13638840   0.72885262   0.44716870
  197 1     2      0.00000      5.11675     15.56820      9.74934   #   C10   0.17326961   0.71981111   0.47524605
  198 1     2      0.00000      6.18892     15.09986      8.98491   #   C11   0.20252302   0.69991186   0.43798246
  199 1     2      0.00000      6.96304     13.21053      5.90498   #   C12   0.21883331   0.61962411   0.28784673
  200 1     2      0.00000      8.03521     12.74134      5.14106   #   C13   0.24808664   0.59968220   0.25060827
  201 1     2      0.00000      9.29938     13.31913      5.27552   #   C14   0.28497150   0.62724398   0.25716280
  202 1     2      0.00000     15.42055     11.62654      6.58923   #   C15   0.46065843   0.54014137   0.32120163
  203 1     2      0.00000     15.21993     11.61252      5.19953   #   C16   0.45298212   0.54463838   0.25345863
  204 1     2      0.00000     14.84899     20.69411      4.49333   #   C17   0.44911997   0.98835458   0.21903391
  205 1     2      0.00000     14.98787     19.48504      5.19553   #   C18   0.45303698   0.92701468   0.25326362
  206 1     2      0.00000     15.18913     19.47899      6.58610   #   C19   0.46071576   0.92153991   0.32104919
  207 1     2      0.00000     15.25102     20.70166      7.27440   #   C20   0.46447996   0.97835956   0.35460112
  208 1     2      0.00000     14.63634     20.68994      3.02326   #   C21   0.44099640   0.99362932   0.14737324
  209 1     2      0.00000     14.01469     11.27319      2.43224   #   C22   0.41435383   0.53846752   0.11856308
  210 1     2      0.00000     13.81507     11.26692      1.04867   #   C23   0.40672113   0.54331768   0.05111919
  211 1     2      0.00000     14.53629     10.38405      0.23861   #   C24   0.42550715   0.50345562   0.01163160