ITEM: TIMESTEP
0
ITEM: NUMBER OF ATOMS
632
ITEM: BOX BOUNDS xy xz yz pp pp pp
-1.6480202600000000e+00 3.4915204699999997e+01 -6.1242642999999997e-01
0.0000000000000000e+00 2.2162849290000000e+01 -1.0355938300000000e+00
0.0000000000000000e+00 2.0514309290000000e+01 1.5736534200000001e+00
ITEM: ATOMS id type element x y z q
4 3 H 3.56588 3.9627 6.78197 0
35 2 C 3.77522 4.78784 7.45046 0
36 2 C 2.72124 5.64965 7.83633 0
37 2 C 1.39183 5.48636 7.41974 0
38 2 C 3.00145 6.72487 8.69044 0
70 4 N 1.01715 4.59756 6.69583 0
8 3 H 4.95613 2.29431 7.48563 0
34 2 C 5.09538 4.99417 7.93 0
40 2 C 5.33291 6.08204 8.79137 0
374 2 C -0.0984687 7.22528 2.14434 0
39 2 C 4.29635 6.93987 9.16031 0
411 3 H 4.8201 0.427506 0.455429 0
3 3 H 7.78004 5.57131 7.58372 0
9 3 H 6.77178 0.758543 6.92061 0
10 3 H 9.08009 1.55728 6.69877 0
29 3 H 9.86595 5.59287 1.42173 0
30 2 C 9.94577 4.00634 7.00976 0
31 2 C 8.60183 3.62191 7.13582 0
32 2 C 7.55364 4.52178 7.44646 0
33 2 C 6.21536 4.0639 7.56968 0
41 2 C 5.95593 2.69349 7.37765 0
42 2 C 6.98739 1.80929 7.06239 0
43 2 C 8.2977 2.26833 6.93979 0
69 4 N 10.3417 5.1281 7.20529 0
63 1 C 9.8626 6.09007 0.425795 0
15 3 H 12.208 1.73521 1.11105 0
23 3 H 12.0077 6.72863 2.65537 0
58 2 C 12.6088 6.45177 1.79785 0
59 2 C 12.0567 6.63121 0.53183 0
51 2 C 12.5394 0.953225 0.44107 0
28 3 H 8.84556 6.49973 0.257303 0
71 6 O 10.7872 7.15354 0.386403 0
7 3 H 6.3179 6.2651 9.19972 0
1 9 Zn 12.9931 5.12992 6.73175 0
11 3 H 14.2225 4.85053 6.33406 0
12 3 H 13.927 2.06645 2.54265 0
22 3 H 14.8347 4.88213 6.13869 0
26 3 H 15.0744 4.87209 6.04905 0
44 2 C 14.563 1.07176 4.3346 0
45 2 C 14.1132 1.10558 3.00652 0
57 2 C 13.893 5.89374 1.9646 0
62 2 C 14.6362 5.53015 0.811699 0
64 2 C 15.925 4.31427 8.75922 0
65 2 C 14.3382 5.61068 3.35863 0
67 2 C 14.7202 2.3085 5.06927 0
72 5 O 15.5648 5.35747 3.65695 0
73 5 O 16.6971 4.30228 7.73284 0
74 5 O 16.3818 6.83224 6.19152 0
75 5 O 15.8917 2.81178 5.17999 0
77 5 O 14.6693 4.55921 8.65065 0
78 5 O 13.4307 5.58537 4.26146 0
79 5 O 13.6688 2.89209 5.51479 0
318 8 Zn 16.232 4.81224 5.70028 0
341 3 H 15.6036 5.05467 0.914732 0
353 2 C 18.9272 3.82714 5.71502 0
386 4 N 18.4028 4.72486 5.10457 0
24 3 H 18.3846 3.30492 9.37258 0
321 3 H 20.0236 1.78975 6.91905 0
130 2 C 19.1735 0.0964095 0.820779 0
94 3 H 19.4953 0.785082 0.049496 0
140 2 C 16.5113 4.11381 10.103 0
76 5 O 14.2469 7.38243 6.64632 0
139 2 C 17.8146 3.6065 10.2433 0
352 2 C 20.2932 3.5168 5.64317 0
319 3 H 25.2569 4.36833 5.57157 0
320 3 H 20.9183 5.16634 4.38767 0
323 3 H 24.0337 2.43262 5.63089 0
324 3 H 22.3094 5.2151 2.52473 0
347 2 C 25.9586 5.50353 3.86997 0
348 2 C 24.9774 4.81913 4.62796 0
349 2 C 23.643 4.70041 4.15838 0
350 2 C 22.615 3.91627 4.91829 0
351 2 C 21.2429 4.28333 4.92341 0
354 2 C 20.7281 2.39072 6.35435 0
355 2 C 22.0697 2.01588 6.3419 0
356 2 C 23.0042 2.7657 5.62996 0
357 2 C 23.3097 5.29765 2.92938 0
358 2 C 24.2715 5.98687 2.18856 0
359 2 C 25.5851 6.08421 2.6502 0
401 3 H 22.3871 1.13487 6.88516 0
404 3 H 24.3332 3.07674 0.602406 0
346 2 C 27.3083 5.593 4.25455 0
95 3 H 20.608 0.838087 2.23452 0
325 3 H 24.0009 6.43357 1.24024 0
326 3 H 26.3153 6.60854 2.0442 0
2 8 Zn 33.7152 4.78637 6.3474 0
389 5 O 33.2579 4.05321 8.28118 0
390 5 O 33.6771 6.79188 7.11778 0
391 5 O 33.5561 2.7761 5.51274 0
25 3 H 32.4658 5.05493 0.961606 0
317 9 Zn 30.4039 5.31628 5.72621 0
327 3 H 31.6272 4.92502 6.05894 0
328 3 H 31.5011 2.02139 2.53829 0
338 3 H 32.2687 4.93423 6.1404 0
340 3 H 32.2179 1.40595 9.47233 0
342 3 H 32.5191 4.90744 6.16638 0
360 2 C 32.4347 1.07492 4.22214 0
361 2 C 31.8383 1.07855 2.95074 0
373 2 C 33.7439 6.32145 2.16084 0
378 2 C 33.2762 5.77446 0.949374 0
380 2 C 32.1002 3.99857 8.82665 0
381 2 C 33.189 5.90114 3.45941 0
383 2 C 32.4802 2.35494 4.94886 0
385 4 N 27.7282 5.14593 5.29308 0
388 5 O 34.0141 5.55307 4.37709 0
393 5 O 31.0368 4.36636 8.20417 0
394 5 O 31.9199 5.89172 3.64977 0
395 5 O 31.4108 3.05915 4.94142 0
495 3 H 31.6205 1.85289 0.299461 0
530 2 C 30.9767 1.01412 0.070393 0
456 2 C 32.0031 3.43652 10.1785 0
5 3 H 2.21259 7.40065 9.00291 0
339 3 H 0.277027 7.64416 3.07078 0
375 2 C 0.503099 7.59186 0.937388 0
387 6 O 1.57156 8.46443 0.932919 0
345 3 H 0.42342 10.074 1.60764 0
379 1 C 1.07461 9.77119 0.756663 0
344 3 H 1.93408 10.4703 0.724871 0
497 3 H 0.903296 13.6732 3.28684 0
532 2 C 0.404912 13.6814 2.32484 0
533 2 C 1.15135 13.3894 1.17979 0
545 6 O 2.49435 13.091 1.28831 0
502 3 H 4.30265 14.0645 1.29485 0
537 1 C 3.22158 14.2965 1.20616 0
85 3 H 4.49532 7.76895 9.82746 0
17 3 H 11.2928 10.0267 5.05887 0
18 3 H 11.7864 9.16698 6.56858 0
54 1 C 11.6196 10.164 6.11006 0
226 7 S 10.3306 11.0703 7.02241 0
290 2 C 11.217 11.0228 8.58265 0
19 3 H 12.5655 10.7419 6.11626 0
99 3 H 12.1421 12.9444 8.29911 0
201 2 C 7.61081 14.2113 9.55851 0
186 3 H 11.3272 9.09957 1.92888 0
187 3 H 12.7215 9.9587 2.62093 0
221 1 C 12.1334 9.81704 1.6847 0
229 6 O 11.5331 11.0089 1.2347 0
181 3 H 12.4539 12.3939 3.23029 0
216 2 C 12.9174 12.6566 2.28593 0
217 2 C 12.5128 11.9727 1.1448 0
134 2 C 12.0418 12.0877 8.95033 0
185 3 H 12.78 9.38203 0.890612 0
253 3 H 10.4219 9.10838 9.17099 0
289 2 C 11.07 9.9318 9.4434 0
200 2 C 6.2754 14.2881 9.95644 0
135 2 C 12.7371 12.0566 10.162 0
168 3 H 8.29536 13.6029 10.1391 0
173 3 H 15.4886 8.39504 2.09637 0
13 3 H 16.4159 8.14632 4.06378 0
14 3 H 15.0077 10.1996 7.57482 0
21 3 H 17.6104 12.1694 2.32157 0
46 2 C 16.3307 10.2762 3.88886 0
47 2 C 16.2143 9.0772 4.58025 0
48 2 C 15.744 9.03821 5.8983 0
49 2 C 15.4219 10.2246 6.57406 0
50 2 C 16.5505 10.2734 2.42027 0
55 2 C 17.2448 11.3776 0.367972 0
56 2 C 17.1868 11.3443 1.76395 0
66 2 C 15.4622 7.70041 6.38924 0
170 3 H 16.1346 12.3995 4.04936 0
202 2 C 15.6274 11.4437 5.91073 0
203 2 C 16.0694 11.4585 4.57587 0
209 2 C 16.0164 9.22368 1.64618 0
210 2 C 16.0994 9.24866 0.263397 0
225 2 C 15.2692 12.7451 6.45664 0
233 5 O 16.1713 13.6496 6.38393 0
237 5 O 14.0285 13.0163 6.6325 0
499 3 H 15.2109 14.7732 0.903437 0
220 2 C 14.4783 13.9784 0.975602 0
215 2 C 13.8883 13.6676 2.22272 0
558 3 H 19.893 13.632 0.154694 0
223 2 C 14.1785 14.3851 3.48531 0
236 5 O 13.2234 14.4639 4.33665 0
333 3 H 26.8711 9.23131 6.00732 0
334 3 H 27.0054 9.18913 7.80578 0
480 3 H 22.2349 13.2762 0.808663 0
370 1 C 27.5707 9.33642 6.86173 0
392 5 O 31.5723 7.44023 6.68355 0
329 3 H 34.0838 8.0799 9.41724 0
362 2 C 34.0447 10.2292 9.60495 0
363 2 C 33.7557 9.01115 8.97012 0
486 3 H 33.8497 12.3741 9.47321 0
519 2 C 33.6305 11.4256 8.99749 0
183 3 H 32.2975 14.2927 0.876986 0
330 3 H 32.0621 10.1631 6.24412 0
335 3 H 28.358 8.56121 6.76613 0
364 2 C 33.0377 8.97919 7.76519 0
365 2 C 32.6087 10.1825 7.17973 0
382 2 C 32.7478 7.67692 7.14113 0
518 2 C 32.9173 11.4115 7.78722 0
541 2 C 32.5444 12.6913 7.15576 0
542 7 S 28.3105 11.0022 6.817 0
549 5 O 33.39 13.6547 7.20833 0
553 5 O 31.4054 12.8186 6.57432 0
415 3 H 30.1221 9.13911 8.20056 0
536 2 C 33.3404 14.0124 0.961124 0
450 2 C 29.8608 9.93284 8.8841 0
606 2 C 28.9963 10.9569 8.48175 0
531 2 C 33.9557 14.0024 2.2315 0
539 2 C 33.2163 14.3899 3.45987 0
552 5 O 31.9357 14.3013 3.49909 0
569 3 H 28.0182 12.7817 9.07688 0
605 2 C 28.684 11.9823 9.37735 0
451 2 C 30.411 9.93348 10.1682 0
503 3 H 2.95762 14.9871 2.03904 0
501 3 H 3.06494 14.7983 0.224366 0
166 3 H 4.34743 15.1312 9.60055 0
199 2 C 5.36804 15.0744 9.24496 0
192 2 C 4.79614 16.6766 7.38908 0
163 3 H 2.31724 19.0623 5.53587 0
193 2 C 3.42319 16.3284 7.26551 0
194 2 C 2.51124 17.1867 6.59652 0
195 2 C 1.14624 16.8939 6.42207 0
196 2 C 2.98786 18.3883 6.05736 0
197 2 C 4.32929 18.7446 6.19031 0
198 2 C 5.22553 17.9011 6.84631 0
162 3 H 3.06927 15.3895 7.67207 0
228 4 N 0.608892 15.9377 6.92177 0
243 3 H 4.67712 19.6836 5.78102 0
447 2 C 3.35622 20.3539 0.545378 0
448 2 C 3.30317 19.4153 1.58215 0
573 3 H 2.10927 17.8584 2.50154 0
574 3 H 0.299113 17.9898 0.862375 0
608 2 C 2.18625 18.5731 1.69382 0
609 2 C 1.15024 18.6519 0.758991 0
384 7 S 4.66372 19.3541 2.7625 0
492 3 H 4.84806 17.1443 1.73018 0
493 3 H 4.1003 17.0625 3.38717 0
528 1 C 4.88262 17.5435 2.76553 0
188 2 C 9.43439 14.8259 8.11965 0
208 2 C 12.7976 20.5246 0.882659 0
189 2 C 8.06504 14.9171 8.43607 0
191 2 C 5.77792 15.7973 8.11019 0
161 3 H 7.47818 16.2562 6.83788 0
165 3 H 6.25543 18.22 6.93974 0
190 2 C 7.13876 15.7074 7.70713 0
227 4 N 9.93338 15.3856 7.17491 0
159 9 Zn 12.6365 15.2273 6.70988 0
491 3 H 5.8714 17.3042 3.20745 0
511 2 C 18.4775 15.7523 4.07855 0
510 2 C 19.8397 15.8426 3.73433 0
479 3 H 19.397 15.8576 1.61773 0
512 2 C 20.1721 15.8937 2.37506 0
169 3 H 13.8765 15.529 6.32368 0
171 3 H 13.3854 18.3373 2.43948 0
172 3 H 14.5686 20.4344 5.98655 0
179 3 H 13.8587 18.7337 0.253113 0
180 3 H 14.4886 15.4985 6.14332 0
184 3 H 14.7362 15.5172 6.05608 0
204 2 C 13.2983 20.5007 2.28904 0
205 2 C 13.5583 19.2808 2.94207 0
206 2 C 14.025 19.2677 4.26359 0
207 2 C 14.2263 20.4531 4.95714 0
222 2 C 15.4579 16.4695 8.70143 0
224 2 C 14.2435 18.0115 4.94439 0
230 5 O 15.3512 14.8355 3.75967 0
231 5 O 16.2637 16.3674 7.70683 0
232 5 O 15.4366 17.5562 5.04839 0
234 5 O 13.2231 17.3968 5.41327 0
235 5 O 14.225 16.1233 8.60428 0
476 8 Zn 15.9023 15.6237 5.73645 0
544 4 N 18.0974 15.7889 5.22177 0
182 3 H 17.7382 17.8945 9.10585 0
257 3 H 17.4423 18.2611 3.62305 0
258 3 H 16.3106 18.1986 1.44863 0
287 2 C 17.518 19.7738 0.575693 0
292 2 C 17.7623 18.9326 2.84218 0
293 2 C 17.1228 18.8988 1.60158 0
68 7 S 19.5972 19.8352 4.69719 0
131 2 C 19.2018 20.7124 2.06406 0
132 2 C 18.8101 19.8264 3.07764 0
297 2 C 17.184 17.7087 10.018 0
298 2 C 15.9711 16.9979 9.98502 0
264 3 H 18.1371 20.4502 10.1096 0
543 4 N 27.4708 14.8948 4.8691 0
481 3 H 23.5459 16.1879 2.56803 0
477 3 H 24.899 15.1627 4.12879 0
514 2 C 22.5295 16.0715 2.91992 0
513 2 C 21.5039 16.0107 1.97389 0
559 3 H 21.743 16.0673 0.919976 0
175 3 H 21.954 19.3396 4.93815 0
176 3 H 21.6786 20.601 3.68405 0
212 1 C 21.3043 19.6396 4.0908 0
478 3 H 20.6338 15.852 5.74546 0
482 3 H 22.1235 17.2212 6.74309 0
484 3 H 26.176 16.7246 7.94177 0
505 2 C 25.7081 15.8824 6.005 0
507 2 C 23.352 16.1485 5.30464 0
508 2 C 22.2432 16.016 4.29588 0
515 2 C 23.1014 16.8166 6.51871 0
516 2 C 24.1149 17.0046 7.45576 0
517 2 C 25.4049 16.5471 7.20048 0
506 2 C 24.6727 15.6732 5.05589 0
509 2 C 20.8833 15.8992 4.69365 0
504 2 C 27.0517 15.5097 5.81839 0
177 3 H 21.3509 18.8535 3.30917 0
483 3 H 23.9029 17.5256 8.38084 0
580 3 H 26.9877 18.4051 9.66922 0
475 9 Zn 30.1747 14.828 5.36905 0
546 5 O 33.8893 14.8306 4.4621 0
331 3 H 29.2749 18.5803 1.22685 0
367 2 C 29.4105 19.4364 0.580411 0
524 2 C 30.2689 20.4973 0.940215 0
551 5 O 30.4646 16.0395 7.73848 0
160 8 Zn 33.346 15.6242 6.39109 0
547 5 O 32.6077 16.3995 8.28981 0
548 5 O 33.1217 17.6061 5.48281 0
485 3 H 31.3075 15.3063 5.92425 0
487 3 H 31.1928 18.3304 2.33949 0
488 3 H 32.5935 20.43 5.82225 0
496 3 H 31.94 15.3511 6.03091 0
498 3 H 29.5364 18.4319 8.62486 0
500 3 H 32.188 15.4095 6.09298 0
520 2 C 31.0019 20.4775 2.24413 0
521 2 C 31.3832 19.2682 2.84575 0
522 2 C 31.9579 19.2393 4.12893 0
523 2 C 32.2027 20.4453 4.81176 0
538 2 C 31.351 16.4856 8.55316 0
540 2 C 32.0871 17.9277 4.78979 0
550 5 O 31.0973 17.1263 4.66023 0
613 2 C 29.8751 18.1488 9.61496 0
614 2 C 30.8684 17.1687 9.76889 0
83 3 H 3.0933 6.43354 16.1339 0
84 3 H 1.66339 5.21072 12.2597 0
114 2 C 3.2951 6.17131 15.1042 0
115 2 C 2.2087 5.83883 14.2566 0
116 2 C 0.865884 5.84381 14.6728 0
117 2 C 2.47342 5.47501 12.9305 0
118 2 C 3.78092 5.45227 12.4478 0
149 4 N 0.514005 6.19122 15.7725 0
113 2 C 4.63379 6.15381 14.622 0
119 2 C 4.84939 5.79444 13.2775 0
6 3 H 3.96718 5.17265 11.4195 0
407 3 H -0.423873 2.78867 19.2024 0
410 3 H 1.96746 2.14708 19.3248 0
440 2 C -0.822791 1.86731 18.7938 0
27 3 H 9.02502 6.91854 20.1363 0
16 3 H 10.3719 3.3373 19.318 0
52 2 C 11.0348 2.54323 19.6384 0
82 3 H 7.29108 5.30545 14.5051 0
86 3 H 5.84349 5.78924 12.8521 0
109 2 C 9.52784 6.05553 15.9077 0
110 2 C 8.19659 6.47118 16.083 0
111 2 C 7.10937 6.03242 15.2853 0
112 2 C 5.79714 6.54756 15.4939 0
148 4 N 9.8934 5.24909 15.0883 0
147 7 S 10.8 1.59777 17.0485 0
80 9 Zn 12.5839 5.26224 15.5275 0
156 5 O 12.8326 6.29617 17.9245 0
53 2 C 11.4074 1.53702 18.7432 0
61 2 C 13.0357 7.28855 20.0394 0
90 3 H 13.6727 5.84022 16.0908 0
91 3 H 16.2373 2.87787 19.643 0
101 3 H 14.3185 5.87716 16.1968 0
102 3 H 18.1534 3.80973 13.6212 0
105 3 H 14.556 5.93224 16.273 0
123 2 C 15.3206 1.92044 17.9442 0
124 2 C 16.0161 1.93181 19.1624 0
136 2 C 16.3821 4.3972 12.5266 0
137 2 C 17.6876 3.89568 12.6467 0
138 2 C 18.404 3.50108 11.5098 0
141 2 C 15.7966 4.49494 11.2541 0
143 2 C 13.6435 6.79284 18.7838 0
144 2 C 15.6463 4.84666 13.7243 0
146 2 C 14.9451 3.19848 17.3173 0
151 5 O 16.306 5.36154 14.6978 0
152 5 O 14.903 6.88439 18.53 0
154 5 O 15.7629 4.18284 17.4095 0
157 5 O 14.3704 4.71981 13.7638 0
158 5 O 13.822 3.30313 16.7054 0
397 8 Zn 15.7012 6.16009 16.6048 0
420 3 H 14.7976 4.90414 11.1597 0
465 4 N 17.8586 6.49673 17.1701 0
150 6 O 19.6788 2.98939 11.6395 0
432 2 C 18.4119 7.32101 16.4868 0
405 3 H 25.6273 4.39577 20.3815 0
399 3 H 20.3332 5.98532 17.907 0
403 3 H 21.6809 5.90058 19.7727 0
437 2 C 23.6081 5.07671 20.1712 0
438 2 C 24.9306 4.93412 19.7487 0
106 3 H 20.5351 4.55113 10.5469 0
142 1 C 20.5957 4.05506 11.542 0
107 3 H 21.6221 3.64846 11.6507 0
108 3 H 20.4409 4.79853 12.3566 0
398 3 H 24.7377 6.62084 16.7987 0
426 2 C 25.3564 5.48867 18.5343 0
427 2 C 24.4167 6.19196 17.7391 0
428 2 C 23.0715 6.35637 18.168 0
430 2 C 20.6966 6.83989 17.3508 0
436 2 C 22.6884 5.78464 19.3953 0
425 2 C 26.7159 5.35652 18.1953 0
464 4 N 27.1829 5.77652 17.1656 0
429 2 C 22.0823 7.15613 17.3671 0
463 7 S 27.413 1.65253 17.528 0
369 2 C 28.3634 1.56705 19.0516 0
81 8 Zn 33.203 6.02663 16.134 0
468 5 O 33.367 6.9268 18.0515 0
104 3 H 31.8322 5.34073 11.1944 0
396 9 Zn 29.8747 5.57278 16.7493 0
406 3 H 31.1244 5.93245 16.5061 0
417 3 H 31.761 5.90334 16.3971 0
421 3 H 32.0078 5.9203 16.3468 0
439 2 C 33.0527 1.92003 17.8513 0
452 2 C 31.8477 3.69179 12.5949 0
453 2 C 31.9387 2.30064 12.7393 0
454 2 C 32.0857 1.47943 11.6165 0
455 2 C 32.1058 2.04801 10.3385 0
457 2 C 31.8822 4.26422 11.3106 0
459 2 C 32.4752 7.05081 18.9665 0
460 2 C 31.7786 4.51233 13.8099 0
462 2 C 32.5729 3.22834 17.384 0
467 5 O 32.8533 5.0682 14.2374 0
470 5 O 33.4422 4.09662 17.0185 0
472 5 O 31.268 6.64775 18.786 0
473 5 O 30.68 4.55398 14.4714 0
474 5 O 31.3152 3.47149 17.3486 0
418 3 H 31.9242 1.85289 13.7267 0
529 2 C 29.1916 2.63355 19.4059 0
494 3 H 29.2531 3.50413 18.7677 0
376 2 C -0.973705 8.59172 20.2556 0
343 3 H -0.509132 11.4472 20.3068 0
366 2 C -0.138676 10.2481 10.8992 0
489 3 H 1.08105 11.9771 10.4162 0
490 3 H 2.27116 12.0028 12.5582 0
525 2 C 0.840174 11.226 11.1578 0
413 3 H 4.09118 10.8126 13.5849 0
120 2 C 5.6092 7.48929 16.5247 0
371 2 C 0.275546 9.30118 13.1044 0
372 2 C -0.417111 9.2883 11.8909 0
526 2 C 1.52739 11.238 12.3755 0
87 3 H 4.63991 7.92959 16.7128 0
242 3 H 1.78925 13.0385 16.9994 0
164 3 H 4.15112 12.3923 16.8714 0
276 2 C 3.81731 13.2941 16.3741 0
275 2 C 2.47617 13.6654 16.4412 0
419 3 H -0.472766 8.85997 19.333 0
336 3 H 0.0517254 8.55596 13.8547 0
527 2 C 1.25428 10.2683 13.3488 0
621 7 S 2.12204 10.2671 14.9235 0
412 3 H 4.49912 9.82377 15.029 0
414 3 H 3.74614 9.02864 13.5929 0
449 1 C 3.76729 9.95355 14.2068 0
277 2 C 4.72906 14.0703 15.6609 0
577 3 H 0.100076 14.7551 19.5646 0
218 2 C 12.0122 13.8936 20.4219 0
60 2 C 11.7554 7.85419 19.9232 0
167 3 H 5.94363 13.7446 10.832 0
121 2 C 6.67618 7.90618 17.3185 0
122 2 C 7.95717 7.40707 17.0975 0
88 3 H 6.51172 8.63508 18.1019 0
89 3 H 8.77011 7.76475 17.7197 0
252 3 H 11.5851 9.05699 11.3196 0
103 3 H 11.299 7.99413 18.9497 0
288 2 C 11.7464 9.90427 10.6672 0
129 2 C 12.5959 10.9658 11.0453 0
244 3 H 5.75693 13.7355 15.6126 0
261 3 H 11.6372 13.402 19.5326 0
20 3 H 16.6638 13.7987 20.3865 0
174 3 H 14.6312 10.0069 20.2128 0
96 3 H 13.3932 12.1532 17.3276 0
97 3 H 13.2592 11.8347 19.0755 0
133 1 C 13.84 11.5897 18.1677 0
98 3 H 13.7472 10.5022 17.9664 0
211 2 C 15.6434 11.9162 20.1309 0
305 7 S 15.6102 12.0342 18.3452 0
400 3 H 19.5971 9.29179 15.2371 0
431 2 C 19.7838 7.60923 16.5839 0
92 3 H 13.4927 8.80934 12.4808 0
93 3 H 14.9942 10.9391 15.8785 0
100 3 H 13.3806 12.8922 10.4037 0
125 2 C 13.2976 10.9562 12.3663 0
126 2 C 13.6847 9.75195 12.9773 0
127 2 C 14.2853 9.73773 14.2491 0
128 2 C 14.5476 10.9551 14.9017 0
145 2 C 14.4351 8.43258 14.9354 0
153 5 O 15.4524 8.14993 15.6754 0
155 5 O 13.471 7.60099 14.7903 0
249 3 H 13.1527 13.0878 12.6461 0
281 2 C 14.1206 12.1707 14.3302 0
282 2 C 13.5059 12.1545 13.0666 0
304 2 C 14.1544 13.4626 15.0604 0
312 5 O 15.158 13.8142 15.7839 0
316 5 O 13.1371 14.2305 14.93 0
433 2 C 20.2699 8.69183 15.8397 0
322 3 H 21.9817 9.86964 15.2957 0
434 2 C 21.624 9.02189 15.8663 0
402 3 H 23.5616 8.56372 16.6243 0
435 2 C 22.5214 8.26654 16.6213 0
561 3 H 21.4397 13.898 15.4564 0
562 3 H 23.175 13.6075 13.7671 0
563 3 H 25.4808 14.3254 14.1872 0
594 2 C 22.4359 14.2585 15.6758 0
595 2 C 23.4232 14.0798 14.7091 0
560 3 H 22.9706 14.6976 19.64 0
596 2 C 24.7315 14.4895 14.9539 0
377 2 C 32.8717 7.67959 20.2468 0
337 3 H 33.7395 8.53193 11.7325 0
628 5 O 32.5867 14.0052 15.2617 0
469 5 O 32.7869 7.94214 15.2643 0
408 3 H 30.7278 8.7801 12.6326 0
409 3 H 31.9828 10.8967 16.1481 0
416 3 H 31.091 9.13511 10.4334 0
441 2 C 30.6562 10.9408 12.4701 0
442 2 C 30.927 9.72419 13.124 0
443 2 C 31.4227 9.70721 14.4345 0
444 2 C 31.6386 10.9098 15.1203 0
445 2 C 30.0938 10.9544 11.0856 0
461 2 C 31.6073 8.42221 15.1083 0
471 5 O 30.562 7.797 15.5066 0
565 3 H 30.6766 13.0956 12.7041 0
568 3 H 28.9266 12.7748 11.3415 0
597 2 C 31.3535 12.1267 14.4914 0
598 2 C 30.8813 12.1403 13.1712 0
604 2 C 29.2165 11.9783 10.6699 0
620 2 C 31.4581 13.3997 15.2083 0
632 5 O 30.3821 13.9263 15.67 0
446 2 C 1.28305 22.0125 20.1272 0
273 2 C 2.01879 14.8199 15.792 0
534 2 C -0.501348 14.9718 20.4393 0
245 3 H 3.92143 16.5813 12.6479 0
241 3 H 2.60472 16.5131 14.5739 0
271 2 C 4.31813 15.2447 15.0031 0
272 2 C 2.94677 15.6148 15.072 0
274 2 C 0.648731 15.1093 15.9018 0
307 4 N 0.108197 16.0502 15.3758 0
246 3 H 5.56476 17.8012 11.304 0
278 2 C 4.93886 16.6527 13.0099 0
270 2 C 5.31996 16.0385 14.2162 0
566 3 H -1.01461 19.0866 18.9609 0
599 2 C -0.916948 21.2235 19.2178 0
600 2 C -1.42821 20.0438 18.6621 0
603 2 C 0.172702 21.157 20.2206 0
214 2 C 12.1427 21.0981 20.4806 0
213 2 C 11.6574 21.11 19.1708 0
314 5 O 12.5251 15.656 18.1522 0
247 3 H 7.91231 17.9537 12.0091 0
279 2 C 5.87294 17.3425 12.235 0
280 2 C 7.20597 17.4264 12.6404 0
240 3 H 6.99327 15.673 15.5511 0
254 3 H 8.82673 20.4014 16.1412 0
255 3 H 8.88215 20.3254 17.9426 0
256 3 H 10.2938 19.7493 16.9525 0
267 2 C 8.99659 16.9087 14.1607 0
268 2 C 7.62938 16.828 13.8352 0
269 2 C 6.67628 16.1397 14.6273 0
291 1 C 9.48515 20.5046 17.0279 0
306 4 N 9.46304 16.4341 15.1667 0
178 3 H 11.9657 20.3312 18.4891 0
238 9 Zn 12.1533 16.5329 15.6521 0
219 2 C 13.0041 14.8807 20.3222 0
590 2 C 17.9163 15.4638 18.2224 0
589 2 C 19.273 15.2851 18.5478 0
591 2 C 19.619 15.1579 19.8991 0
266 3 H 18.0024 20.6369 11.9235 0
300 1 C 18.6266 20.245 11.0886 0
308 6 O 18.8961 18.8708 11.251 0
248 3 H 13.288 16.0628 16.2095 0
250 3 H 15.7985 19.173 19.6141 0
251 3 H 13.8634 21.2687 16.3907 0
259 3 H 13.9319 16.0507 16.3032 0
260 3 H 17.4359 18.275 13.3599 0
263 3 H 14.178 16.0127 16.3592 0
283 2 C 15.7898 21.323 19.7793 0
284 2 C 15.4956 20.1039 19.1485 0
285 2 C 14.8028 20.0757 17.9267 0
286 2 C 14.398 21.2831 17.3333 0
294 2 C 15.7998 17.2281 12.4095 0
295 2 C 17.0153 17.9284 12.4233 0
296 2 C 17.6963 18.1896 11.229 0
299 2 C 15.2735 16.7767 11.1873 0
301 2 C 13.4383 15.2732 18.969 0
302 2 C 15.1217 16.9127 13.6775 0
303 2 C 14.5027 18.7779 17.2939 0
309 5 O 15.8391 16.5366 14.6709 0
310 5 O 14.6736 15.2042 18.6119 0
311 5 O 15.3825 17.8453 17.3645 0
313 5 O 13.3647 18.5966 16.726 0
315 5 O 13.8438 16.9884 13.7535 0
555 8 Zn 15.3513 15.8327 16.6334 0
578 3 H 14.3454 16.2169 11.1804 0
623 4 N 17.5341 15.5342 17.0817 0
557 3 H 20.0408 15.3242 16.5266 0
265 3 H 19.5887 20.7968 11.1022 0
588 2 C 20.2988 15.2164 17.5722 0
587 2 C 21.6525 15.0076 17.9435 0
592 2 C 20.9486 14.9565 20.2753 0
593 2 C 21.9561 14.8796 19.3109 0
332 3 H 26.9895 20.229 19.6524 0
556 3 H 24.33 15.7536 18.0929 0
584 2 C 25.0783 15.0904 16.1713 0
585 2 C 24.0715 15.2862 17.1514 0
586 2 C 22.7339 14.8665 16.9105 0
581 3 H 26.2907 19.887 10.3978 0
583 2 C 26.4284 15.4372 16.3443 0
582 3 H 26.8539 18.5762 11.4844 0
616 1 C 27.0684 19.107 10.5293 0
622 4 N 26.8734 15.9632 17.3335 0
570 3 H 27.2914 20.7455 15.6873 0
571 3 H 27.3307 19.8731 17.2638 0
607 1 C 27.6157 20.8117 16.746 0
535 2 C 33.0507 15.2927 20.3105 0
423 3 H 33.0435 19.2824 12.0251 0
422 3 H 33.5261 20.6692 10.9975 0
458 1 C 32.9493 20.3809 11.9052 0
424 3 H 33.388 20.8552 12.8121 0
466 6 O 31.5841 20.7032 11.7685 0
626 5 O 33.2371 15.4304 17.9334 0
368 2 C 27.6479 21.0509 19.902 0
630 5 O 31.1944 15.6417 18.8283 0
239 8 Zn 32.8251 16.0306 15.9097 0
627 5 O 32.89 18.0492 16.6053 0
262 3 H 32.0429 16.036 11.1923 0
554 9 Zn 29.5402 16.1909 16.8346 0
564 3 H 30.7778 15.9468 16.4224 0
567 3 H 31.1306 21.3512 16.5763 0
572 3 H 28.7175 20.936 16.7749 0
575 3 H 31.4017 16.0168 16.2836 0
576 3 H 29.2337 18.8586 12.8661 0
579 3 H 31.6475 16.024 16.2126 0
601 2 C 32.4559 20.0822 17.7137 0
602 2 C 31.9154 21.3163 17.322 0
610 2 C 30.7019 17.4158 12.1942 0
611 2 C 29.7034 18.3872 12.0107 0
612 2 C 29.2938 18.7582 10.7283 0
615 2 C 31.299 16.8132 11.0644 0
617 2 C 32.4554 15.4312 18.9546 0
618 2 C 31.0179 16.9895 13.5737 0
619 2 C 32.0037 18.8093 17.1381 0
624 6 O 28.3308 19.7328 10.5625 0
625 5 O 32.2186 16.6833 13.9173 0
629 5 O 30.7827 18.4424 17.2814 0
631 5 O 30.0461 16.918 14.407 0
ITEM: TIMESTEP
2500
ITEM: NUMBER OF ATOMS
632
ITEM: BOX BOUNDS xy xz yz pp pp pp
-7.0824754686367131e-01 3.4165093760205615e+01 5.8118515435011597e-01
-1.6429887843331770e-02 2.0828262884555418e+01 -2.0395436410079282e+00
2.2051119235903016e-01 2.0293798097641055e+01 2.2263712671198965e-01
ITEM: ATOMS id type element x y z q
4 3 H 4.17155 2.86414 7.56753 0
35 2 C 4.3638 3.44497 8.45213 0
36 2 C 3.31609 4.19094 9.03144 0
37 2 C 2.03529 4.2675 8.4673 0
70 4 N 1.66186 3.54934 7.5738 0
8 3 H 5.62956 0.916917 8.14465 0
34 2 C 5.66689 3.49446 8.99272 0
374 2 C 2.52983 4.76861 2.71937 0
411 3 H 2.82253 2.07388 3.84019 0
32 2 C 8.04978 3.31238 8.22878 0
33 2 C 6.77955 2.72837 8.38406 0
41 2 C 6.58791 1.3961 7.99413 0
42 2 C 7.63544 0.665748 7.42988 0
339 3 H 2.92613 4.50891 3.69299 0
375 2 C 3.35601 4.62519 1.59538 0
387 6 O 4.62736 4.10734 1.74075 0
345 3 H 5.32618 5.8251 2.70062 0
379 1 C 5.53808 5.17856 1.81906 0
344 3 H 6.55982 4.76467 1.94428 0
329 3 H 1.65502 7.56191 8.76537 0
362 2 C 1.97896 9.68928 8.81371 0
343 3 H 5.53352 5.78266 0.883646 0
3 3 H 8.20289 4.34015 8.53727 0
373 2 C 33.4479 5.19241 2.58409 0
388 5 O 32.9384 4.68111 4.86533 0
363 2 C 1.32645 8.52228 8.38783 0
447 2 C 2.28568 1.20478 3.48517 0
446 2 C 1.88151 1.14222 2.14669 0
10 3 H 9.69624 0.665144 6.83541 0
29 3 H 10.0278 7.19826 1.82192 0
30 2 C 10.3957 3.11568 7.53369 0
31 2 C 9.11714 2.57407 7.67852 0
43 2 C 8.89303 1.25203 7.26622 0
69 4 N 10.6808 4.20923 7.95073 0
63 1 C 10.3241 7.5523 0.809636 0
15 3 H 12.195 2.20827 1.63365 0
23 3 H 12.3273 7.06148 3.17589 0
58 2 C 12.8252 6.5655 2.35106 0
59 2 C 12.5009 6.94073 1.04096 0
51 2 C 12.4685 1.601 0.780403 0
71 6 O 11.6548 8.00711 0.806666 0
1 9 Zn 13.1067 4.64737 7.30611 0
11 3 H 14.3362 4.09912 7.21879 0
12 3 H 14.2057 2.3003 2.86936 0
22 3 H 14.9618 4.26212 6.93271 0
26 3 H 15.1259 4.32918 6.81904 0
44 2 C 14.8364 0.954163 4.42687 0
45 2 C 14.3554 1.26315 3.14345 0
57 2 C 13.8307 5.61161 2.60275 0
62 2 C 14.5132 5.03 1.50773 0
64 2 C 16.3008 3.9784 9.33739 0
65 2 C 14.1495 5.27087 4.01518 0
67 2 C 14.9854 2.02153 5.39331 0
72 5 O 15.3515 5.01686 4.38111 0
74 5 O 16.1342 6.5058 6.96771 0
75 5 O 16.1477 2.4881 5.66554 0
77 5 O 15.0399 4.23778 9.27584 0
78 5 O 13.1958 5.24479 4.86146 0
79 5 O 13.9084 2.55215 5.84251 0
318 8 Zn 16.242 4.47926 6.33708 0
341 3 H 15.3083 4.31487 1.68048 0
76 5 O 13.9375 6.94898 6.97337 0
17 3 H 10.1219 7.42817 5.51402 0
18 3 H 10.6784 6.76872 7.10015 0
54 1 C 10.6361 7.67601 6.46495 0
226 7 S 9.71742 8.99352 7.31531 0
290 2 C 10.816 9.00571 8.73601 0
187 3 H 11.4692 10.9532 1.1511 0
253 3 H 9.68269 7.51858 9.79592 0
289 2 C 10.5326 8.18751 9.82867 0
173 3 H 15.0125 8.02136 2.21322 0
14 3 H 14.82 10.0521 7.58406 0
47 2 C 15.9895 8.32924 4.87341 0
48 2 C 15.4532 8.55022 6.14381 0
49 2 C 15.2523 9.86726 6.60927 0
66 2 C 15.153 7.32069 6.85894 0
209 2 C 15.9345 8.43419 1.84461 0
210 2 C 16.2277 8.34952 0.495385 0
73 5 O 17.0141 3.93688 8.26996 0
19 3 H 11.663 8.02513 6.23428 0
134 2 C 11.9325 9.84978 8.77339 0
135 2 C 12.7381 9.90277 9.92087 0
353 2 C 18.5971 3.93679 4.71496 0
386 4 N 18.2587 4.80856 5.47408 0
24 3 H 18.9183 3.32626 9.90457 0
321 3 H 19.4846 2.00755 3.16091 0
352 2 C 19.8091 3.97368 4.01295 0
319 3 H 24.537 5.21749 3.86947 0
320 3 H 20.4279 5.969 4.62195 0
323 3 H 23.1476 3.89718 2.01363 0
324 3 H 21.2185 7.62834 2.57714 0
348 2 C 24.1464 6.17553 3.54723 0
349 2 C 22.7766 6.27843 3.23876 0
350 2 C 21.8874 5.08078 3.30345 0
351 2 C 20.685 5.089 4.04435 0
354 2 C 20.146 2.86491 3.22092 0
355 2 C 21.3506 2.84126 2.51483 0
356 2 C 22.2218 3.93228 2.56994 0
357 2 C 22.2665 7.52335 2.83036 0
358 2 C 23.1097 8.63648 2.72351 0
359 2 C 24.4691 8.5281 3.03374 0
401 3 H 21.6105 1.97769 1.9173 0
404 3 H 22.3473 2.05832 19.4561 0
325 3 H 22.7062 9.58646 2.40071 0
13 3 H 16.1308 7.32615 4.49748 0
46 2 C 16.3456 9.3811 4.06342 0
50 2 C 16.7807 9.14336 2.70076 0
347 2 C 25.0001 7.30266 3.46544 0
326 3 H 25.0994 9.40707 2.95881 0
335 3 H 26.4865 10.8963 8.02393 0
55 2 C 18.2548 9.6345 0.865472 0
56 2 C 17.9567 9.72588 2.2176 0
403 3 H 20.6478 3.78533 19.7232 0
437 2 C 22.6021 3.0942 19.2696 0
436 2 C 21.641 4.08679 19.4198 0
402 3 H 22.1739 8.13399 19.8256 0
346 2 C 26.3491 7.24439 3.84797 0
2 8 Zn 31.9546 4.24715 6.74628 0
389 5 O 30.7944 3.85277 8.5923 0
390 5 O 32.366 6.22969 7.34469 0
391 5 O 31.437 2.31505 5.99952 0
25 3 H 31.9251 5.7723 1.17926 0
317 9 Zn 29.2441 5.61086 5.24381 0
327 3 H 30.1191 4.9351 5.96621 0
328 3 H 29.6681 1.64469 2.73539 0
338 3 H 30.7184 4.74203 6.16728 0
340 3 H 26.8942 3.53429 8.78307 0
342 3 H 30.923 4.65908 6.26162 0
360 2 C 30.3115 0.765734 4.57529 0
361 2 C 29.8771 0.714447 3.243 0
378 2 C 32.9638 5.48884 1.29598 0
380 2 C 29.5265 4.08478 8.66049 0
381 2 C 32.5314 5.19413 3.76195 0
383 2 C 30.4732 2.09487 5.18388 0
385 4 N 26.8271 6.24358 4.32133 0
393 5 O 28.904 4.61853 7.6745 0
394 5 O 31.3254 5.61713 3.63702 0
395 5 O 29.6719 3.0313 4.82048 0
456 2 C 28.7335 3.82333 9.89237 0
392 5 O 30.7574 7.41294 6.33835 0
330 3 H 31.3493 9.88844 6.2111 0
364 2 C 32.5248 8.58724 7.45912 0
365 2 C 32.1493 9.83427 6.93969 0
382 2 C 31.8373 7.35052 7.03034 0
415 3 H 29.9724 9.41284 8.25392 0
450 2 C 29.7566 10.1376 9.02062 0
451 2 C 30.1786 9.89552 10.3365 0
455 2 C 27.3481 3.60682 9.76438 0
495 3 H 29.6758 1.45967 0.579186 0
497 3 H 3.70008 14.601 3.82409 0
532 2 C 3.2203 14.6294 2.85344 0
533 2 C 4.00479 14.5593 1.68598 0
545 6 O 5.37573 14.4342 1.76866 0
502 3 H 7.05529 15.5935 1.55139 0
537 1 C 5.95167 15.7049 1.56308 0
503 3 H 5.6883 16.3977 2.39332 0
501 3 H 5.65504 16.1453 0.583736 0
199 2 C 6.29666 13.4972 7.93254 0
192 2 C 5.9499 15.8376 8.77963 0
163 3 H 3.66225 18.5296 10.4498 0
193 2 C 4.58425 15.9009 8.47293 0
194 2 C 3.7391 16.868 9.06404 0
195 2 C 2.37969 16.9185 8.7348 0
196 2 C 4.2855 17.7786 9.97866 0
197 2 C 5.64946 17.7254 10.2889 0
198 2 C 6.47673 16.7658 9.69375 0
162 3 H 4.18277 15.1966 7.75489 0
228 4 N 1.95064 16.1221 7.94173 0
448 2 C 2.03605 0.134465 4.35046 0
573 3 H 1.71131 18.8116 4.53836 0
608 2 C 1.91719 19.6432 3.87637 0
609 2 C 33.7499 19.5815 2.5397 0
384 7 S 2.6436 0.152971 6.05003 0
492 3 H 4.66943 1.51392 5.95622 0
493 3 H 4.5996 0.428022 4.5424 0
528 1 C 4.39097 0.498931 5.62885 0
191 2 C 6.80904 14.7895 8.15841 0
491 3 H 5.60995 20.3688 6.13409 0
486 3 H 2.00501 11.8393 8.69915 0
519 2 C 1.53682 10.931 8.3395 0
531 2 C 1.81932 14.7102 2.75448 0
546 5 O 1.33792 15.2294 5.05652 0
200 2 C 7.09692 12.5002 7.37535 0
166 3 H 5.2796 13.2508 8.20248 0
489 3 H 4.23412 11.1942 8.69108 0
525 2 C 4.23322 10.4984 9.51819 0
167 3 H 6.69043 11.5102 7.21126 0
534 2 C 3.3912 14.5749 0.427308 0
603 2 C 1.18787 0.0150829 1.64369 0
9 3 H 8.05686 20.2602 7.12956 0
190 2 C 8.14911 15.0584 7.81107 0
99 3 H 12.1641 10.4813 7.9249 0
201 2 C 8.42454 12.7702 7.04617 0
181 3 H 12.3609 13.2267 2.07293 0
216 2 C 13.0683 13.3672 1.26454 0
202 2 C 15.6563 10.9376 5.77649 0
203 2 C 16.1892 10.6752 4.51095 0
225 2 C 15.4833 12.3582 6.06659 0
233 5 O 16.4256 13.142 5.67365 0
237 5 O 14.3332 12.7846 6.42441 0
499 3 H 16.2233 14.5038 0.588756 0
220 2 C 15.2441 14.07 0.42502 0
215 2 C 14.3435 13.897 1.50797 0
223 2 C 14.6789 14.3028 2.88859 0
236 5 O 13.7494 14.3421 3.77672 0
188 2 C 10.3138 14.2454 6.94173 0
208 2 C 13.4111 0.558978 0.909427 0
189 2 C 8.9676 14.044 7.26532 0
161 3 H 8.55599 16.0489 7.97385 0
227 4 N 10.8773 15.2969 7.10922 0
159 9 Zn 13.4075 15.102 6.31922 0
169 3 H 14.5374 15.4136 5.73731 0
171 3 H 14.4583 18.7102 2.00974 0
172 3 H 15.9136 20.033 5.83002 0
179 3 H 12.9959 19.8403 19.899 0
180 3 H 15.1616 15.3028 5.5217 0
184 3 H 15.3787 15.275 5.45321 0
204 2 C 14.02 0.240422 2.23916 0
205 2 C 14.7585 19.5233 2.65929 0
206 2 C 15.2439 19.2303 3.94937 0
207 2 C 15.5868 20.2588 4.82027 0
222 2 C 16.4638 15.623 8.14953 0
224 2 C 15.2813 17.8664 4.47028 0
230 5 O 15.8764 14.6382 3.17488 0
232 5 O 16.3965 17.2323 4.49713 0
234 5 O 14.2063 17.376 4.97942 0
235 5 O 15.1921 15.466 8.14556 0
476 8 Zn 16.5355 15.1929 5.10563 0
100 3 H 13.5841 10.578 9.93811 0
168 3 H 9.03283 11.9774 6.62638 0
95 3 H 21.7692 17.7069 20.0876 0
333 3 H 26.2512 11.5183 6.34818 0
170 3 H 16.4455 11.4898 3.83987 0
298 2 C 17.2056 15.5822 9.42457 0
21 3 H 18.6078 10.2919 2.87299 0
558 3 H 19.9785 12.4587 0.471357 0
480 3 H 21.9367 11.9077 1.84664 0
511 2 C 18.9459 15.0843 3.36085 0
510 2 C 20.2777 15.1073 2.93019 0
479 3 H 19.7244 15.0036 0.842623 0
512 2 C 20.5385 15.0688 1.55581 0