Created by Ryther's code on 2025-07-29 22:46:51.872447, modified by xyan11@uic.edu. 

    376 atoms
    440 bonds
    768 angles
    848 dihedrals
    168 impropers

    6 atom types
    8 bond types
    13 angle types
    5 dihedral types
    2 improper types

0.00000000 22.12102567 xlo xhi
0.00000000 20.60455432 ylo yhi
0.00000000 20.54274528 zlo zhi
0.00027851 0.00159571 1.59485125 xy xz yz 

Masses 

    1    12.0107  #   C
    2    1.00794  #   H
    3    14.0067  #   N
    4    14.0067  #   N
    5    15.9994  #   O
    6      65.38  #  Zn

Pair Coeffs

    1       0.10500      3.43085  #  C_R C_R
    2       0.04400      2.57113  #  H_ H_
    3       0.06900      3.26069  #  N_2 N_2
    4       0.06900      3.26069  #  N_R N_R
    5       0.06000      3.11815  #  O_2_M O_2_M
    6       0.06000      2.58361  #  Zn6f3 Zn6f3

Bond Coeffs

    1      54.94924      2.40433  #  O_2_M Zn6f3 bond order=0.5
    2      55.07699      2.48452  #  N_2 Zn6f3 bond order=0.5
    3     357.44038      1.08142  #  C_R H_ bond order=1.0
    4     462.65505      1.37926  #  C_R C_R bond order=1.5
    5     931.53598      1.20133  #  C_R N_2 bond order=3.0
    6     663.66675      1.34507  #  C_R N_R bond order=1.5
    7     391.66951      1.45800  #  C_R C_R bond order=1.0
    8     714.55744      1.26901  #  C_R O_2_M bond order=1.5

Angle Coeffs

    1  cosine/periodic         70.47472            1            4  #  N_2 Zn6f3 O_2_M
    2  cosine/periodic         67.02484            1            4  #  O_2_M Zn6f3 O_2_M
    3  cosine/periodic        179.74893           -1            3  #  C_R C_R N_2
    4  cosine/periodic        111.29751           -1            3  #  C_R C_R C_R
    5  cosine/periodic         57.28902           -1            3  #  C_R C_R H_
    6  cosine/periodic         79.78069           -1            3  #  H_ C_R N_R
    7  cosine/periodic        153.68727           -1            3  #  C_R C_R N_R
    8  cosine/periodic        102.18328           -1            3  #  C_R C_R C_R
    9  cosine/periodic        137.71425           -1            3  #  C_R C_R O_2_M
    10 cosine/periodic        206.77843           -1            3  #  O_2_M C_R O_2_M
    11 fourier                 48.02888      0.36401      0.41847      0.28800  #  C_R N_2 Zn6f3
    12 cosine/periodic        120.00052           -1            3  #  C_R N_R C_R
    13 cosine/periodic         21.77718           -1            3  #  C_R O_2_M Zn6f3

Dihedral Coeffs

    1       6.73711           -1            2  #  X C_R C_R X bond order=1.5
    2      27.96100           -1            2  #  X C_R N_2 X bond order=3.0
    3       6.73711           -1            2  #  X C_R N_R X bond order=1.5
    4       1.25000           -1            2  #  X C_R C_R X bond order=1.0
    5       6.73711           -1            2  #  X C_R O_2_M X bond order=1.5

Improper Coeffs

    1       2.00000      1.00000     -1.00000      0.00000            1  #  C_R X X X O_2 present=False
    2      16.66667      1.00000     -1.00000      0.00000            1  #  C_R X X X O_2 present=True

Atoms # a, b, c, alpha, beta, gamma: 22.1210256750, 20.6045543238, 20.6045610682, 85.5607043742, 89.9955627584, 89.9992255405 $$$atoms$$$

    1 1     6      0.00000      3.53168      4.78958      5.83191   #   Zn1   0.15962939   0.21047836   0.28389162
    2 1     6      0.00000      6.46207      4.78958      5.83164   #   Zn2   0.29210042   0.21047964   0.28387850
    3 1     2      0.00000      1.94110      4.08395      9.22453   #    H1   0.08771462   0.16344929   0.44904055
    4 1     2      0.00000      0.65586      2.85571      1.02447   #    H2   0.02964345   0.13473587   0.04987024
    5 1     2      0.00000      8.06080      4.08364      9.22604   #    H3   0.36436087   0.16342831   0.44911428
    6 1     2      0.00000      3.38849      9.94074      6.58932   #    H5   0.15315093   0.45762591   0.32076145
    7 1     2      0.00000      6.77781      7.80510      4.99309   #    H7   0.30637475   0.35999118   0.24305840
    8 1     2      0.00000      7.87681      9.94068      4.47552   #    H8   0.35605653   0.46558754   0.21786363
    9 1     2      0.00000      6.77773      1.77402      4.99309   #    H9   0.30637475   0.06728501   0.24305833
   10 1     2      0.00000      3.81998      5.71988      0.59301   #   H11   0.17267984   0.27536814   0.02886709
   11 1     2      0.00000      6.29978      3.55162      8.95241   #   H13   0.28475382   0.13863872   0.43579409
   12 1     2      0.00000      7.10300      2.01149      0.88066   #   H14   0.32109310   0.09430518   0.04286951
   13 1     2      0.00000      6.29932      3.08479      2.93942   #   H15   0.28475389   0.13863871   0.14308783
   14 1     1      0.00000      0.92674      4.58869      6.79784   #    C1   0.04186769   0.19708893   0.33091206
   15 1     1      0.00000      0.17192      4.33806      8.00280   #    C2   0.00774140   0.18038529   0.38956830
   16 1     1      0.00000      0.85792      4.08957      9.19752   #    C3   0.03874887   0.16382363   0.44772605
   17 1     1      0.00000      0.13507      3.04880      0.09613   #    C4   0.00610379   0.14760493   0.00467944
   18 1     1      0.00000      9.14343      4.08914      9.19959   #    C5   0.41330242   0.16379502   0.44782656
   19 1     1      0.00000      9.82401      4.33846      8.00090   #    C6   0.44407234   0.18041171   0.38947549
   20 1     1      0.00000      9.06798      4.58892      6.79672   #    C7   0.40989949   0.19710443   0.33085765
   21 1     1      0.00000      4.99689      0.86165      5.83178   #    C8   0.22586781   0.01984510   0.28388521
   22 1     1      0.00000      4.36820      9.94073      6.12792   #    C9   0.19744093   0.45936373   0.29830108
   23 1     1      0.00000      4.99699      8.71751      5.83178   #   C10   0.22586778   0.40111322   0.28388522
   24 1     1      0.00000      6.26857      8.73017      5.23293   #   C11   0.28335244   0.40398402   0.25473349
   25 1     1      0.00000      6.89751      9.94070      4.93673   #   C12   0.31178479   0.46385035   0.24031480
   26 1     1      0.00000      6.26846      0.84896      5.23292   #   C13   0.28335243   0.02148549   0.25473345
   27 1     1      0.00000      4.99663      4.48555      1.91563   #   C14   0.22586780   0.21047915   0.09325113
   28 1     1      0.00000      4.53659      4.91041      0.65580   #   C15   0.20507525   0.23584590   0.03192349
   29 1     1      0.00000      4.99724      5.09362      9.74793   #   C16   0.22586780   0.21047915   0.47451929
   30 1     1      0.00000      5.92735      4.04398      9.84206   #   C17   0.26791438   0.15918268   0.47910147
   31 1     1      0.00000      6.38668      2.82061      0.81789   #   C18   0.28871098   0.13381104   0.03981427
   32 1     1      0.00000      5.92674      3.43396      1.98449   #   C19   0.26791444   0.15918269   0.09660293
   33 1     1      0.00000      4.99710      4.92539      8.26746   #   C20   0.22586645   0.20789297   0.40245144
   34 1     1      0.00000      4.99668      4.65379      3.39610   #   C21   0.22586481   0.21306585   0.16531874
   35 1     1      0.00000      4.99690      7.22846      5.77864   #   C22   0.22586468   0.32904543   0.28129831
   36 1     1      0.00000      4.99688      2.35070      5.88492   #   C23   0.22586653   0.09191262   0.28647191
   37 1     3      0.00000      1.53177      4.78958      5.83199   #    N1   0.06922169   0.21047797   0.28389533
   38 1     4      0.00000      9.83689      3.05369      0.07259   #    N2   0.44468292   0.14793117   0.00353383
   39 1     3      0.00000      8.46198      4.78969      5.83146   #    N3   0.38250811   0.21048537   0.28386946
   40 1     5      0.00000      6.10877      4.71019      3.89286   #    O1   0.27613587   0.21393163   0.18950031
   41 1     5      0.00000      6.10911      4.86898      7.77049   #    O2   0.27613783   0.20702768   0.37825973
   42 1     5      0.00000      6.10894      6.72874      5.76076   #    O3   0.27613573   0.30485982   0.28042772
   43 1     5      0.00000      6.10895      2.85043      5.90259   #    O4   0.27613793   0.11609949   0.28733228
   44 1     5      0.00000      3.88480      6.72873      5.76096   #    O5   0.17559184   0.30485851   0.28043784
   45 1     5      0.00000      3.88498      4.86899      7.77070   #    O6   0.17559394   0.20702716   0.37826982
   46 1     5      0.00000      3.88464      4.71019      3.89305   #    O7   0.17559198   0.21393108   0.18950963
   47 1     5      0.00000      3.88481      2.85043      5.90279   #    O8   0.17559404   0.11609894   0.28734164
   48 1     6      0.00000      3.53248      5.58700     16.10329   #   Zn1   0.15962939   0.21047836   0.78389162
   49 1     6      0.00000      6.46287      5.58701     16.10302   #   Zn2   0.29210042   0.21047964   0.78387850
   50 1     2      0.00000      1.94190      4.88138     19.49590   #    H1   0.08771462   0.16344929   0.94904055
   51 1     2      0.00000      0.65666      3.65313     11.29584   #    H2   0.02964345   0.13473587   0.54987024
   52 1     2      0.00000      8.06160      4.88106     19.49741   #    H3   0.36436087   0.16342831   0.94911428
   53 1     2      0.00000      3.38929     10.73817     16.86069   #    H5   0.15315093   0.45762591   0.82076145
   54 1     2      0.00000      6.77861      8.60253     15.26446   #    H7   0.30637475   0.35999118   0.74305840
   55 1     2      0.00000      7.87761     10.73811     14.74689   #    H8   0.35605653   0.46558754   0.71786363
   56 1     2      0.00000      6.77853      2.57145     15.26446   #    H9   0.30637475   0.06728501   0.74305833
   57 1     2      0.00000      3.82078      6.51730     10.86438   #   H11   0.17267984   0.27536814   0.52886709
   58 1     2      0.00000      6.30058      4.34904     19.22378   #   H13   0.28475382   0.13863872   0.93579409
   59 1     2      0.00000      7.10380      2.80891     11.15203   #   H14   0.32109310   0.09430518   0.54286951
   60 1     2      0.00000      6.30011      3.88222     13.21079   #   H15   0.28475389   0.13863871   0.64308783
   61 1     1      0.00000      0.92754      5.38611     17.06921   #    C1   0.04186769   0.19708893   0.83091206
   62 1     1      0.00000      0.17272      5.13549     18.27418   #    C2   0.00774140   0.18038529   0.88956830
   63 1     1      0.00000      0.85872      4.88699     19.46889   #    C3   0.03874887   0.16382363   0.94772605
   64 1     1      0.00000      0.13587      3.84622     10.36750   #    C4   0.00610379   0.14760493   0.50467944
   65 1     1      0.00000      9.14423      4.88657     19.47096   #    C5   0.41330242   0.16379502   0.94782656
   66 1     1      0.00000      9.82481      5.13588     18.27227   #    C6   0.44407234   0.18041171   0.88947549
   67 1     1      0.00000      9.06878      5.38634     17.06810   #    C7   0.40989949   0.19710443   0.83085765
   68 1     1      0.00000      4.99768      1.65908     16.10315   #    C8   0.22586781   0.01984510   0.78388521
   69 1     1      0.00000      4.36900     10.73816     16.39930   #    C9   0.19744093   0.45936373   0.79830108
   70 1     1      0.00000      4.99779      9.51494     16.10315   #   C10   0.22586778   0.40111322   0.78388522
   71 1     1      0.00000      6.26936      9.52760     15.50430   #   C11   0.28335244   0.40398402   0.75473349
   72 1     1      0.00000      6.89831     10.73812     15.20810   #   C12   0.31178479   0.46385035   0.74031480
   73 1     1      0.00000      6.26926      1.64639     15.50430   #   C13   0.28335243   0.02148549   0.75473345
   74 1     1      0.00000      4.99743      5.28298     12.18701   #   C14   0.22586780   0.21047915   0.59325113
   75 1     1      0.00000      4.53739      5.70784     10.92717   #   C15   0.20507525   0.23584590   0.53192349
   76 1     1      0.00000      4.99804      5.89104     20.01930   #   C16   0.22586780   0.21047915   0.97451929
   77 1     1      0.00000      5.92815      4.84141     20.11343   #   C17   0.26791438   0.15918268   0.97910147
   78 1     1      0.00000      6.38748      3.61804     11.08927   #   C18   0.28871098   0.13381104   0.53981427
   79 1     1      0.00000      5.92754      4.23138     12.25586   #   C19   0.26791444   0.15918269   0.59660293
   80 1     1      0.00000      4.99790      5.72282     18.53883   #   C20   0.22586645   0.20789297   0.90245144
   81 1     1      0.00000      4.99748      5.45121     13.66747   #   C21   0.22586481   0.21306585   0.66531874
   82 1     1      0.00000      4.99770      8.02589     16.05001   #   C22   0.22586468   0.32904543   0.78129831
   83 1     1      0.00000      4.99768      3.14812     16.15629   #   C23   0.22586653   0.09191262   0.78647191
   84 1     3      0.00000      1.53256      5.58700     16.10336   #    N1   0.06922169   0.21047797   0.78389533
   85 1     4      0.00000      9.83769      3.85112     10.34397   #    N2   0.44468292   0.14793117   0.50353383
   86 1     3      0.00000      8.46278      5.58711     16.10283   #    N3   0.38250811   0.21048537   0.78386946
   87 1     5      0.00000      6.10957      5.50762     14.16423   #    O1   0.27613587   0.21393163   0.68950031
   88 1     5      0.00000      6.10991      5.66641     18.04187   #    O2   0.27613783   0.20702768   0.87825973
   89 1     5      0.00000      6.10974      7.52617     16.03213   #    O3   0.27613573   0.30485982   0.78042772
   90 1     5      0.00000      6.10974      3.64786     16.17397   #    O4   0.27613793   0.11609949   0.78733228
   91 1     5      0.00000      3.88560      7.52616     16.03234   #    O5   0.17559184   0.30485851   0.78043784
   92 1     5      0.00000      3.88578      5.66641     18.04207   #    O6   0.17559394   0.20702716   0.87826982
   93 1     5      0.00000      3.88543      5.50762     14.16442   #    O7   0.17559198   0.21393108   0.68950963
   94 1     5      0.00000      3.88561      3.64786     16.17416   #    O8   0.17559404   0.11609894   0.78734164
   95 1     6      0.00000      3.53182     15.09185      5.83191   #   Zn1   0.15962939   0.71047836   0.28389162
   96 1     6      0.00000      6.46221     15.09186      5.83164   #   Zn2   0.29210042   0.71047964   0.28387850
   97 1     2      0.00000      1.94124     14.38623      9.22453   #    H1   0.08771462   0.66344929   0.44904055
   98 1     2      0.00000      0.65600     13.15799      1.02447   #    H2   0.02964345   0.63473587   0.04987024
   99 1     2      0.00000      8.06094     14.38592      9.22604   #    H3   0.36436087   0.66342831   0.44911428
  100 1     2      0.00000      3.38863     20.24302      6.58932   #    H5   0.15315093   0.95762591   0.32076145
  101 1     2      0.00000      6.77795     18.10738      4.99309   #    H7   0.30637475   0.85999118   0.24305840
  102 1     2      0.00000      7.87695     20.24296      4.47552   #    H8   0.35605653   0.96558754   0.21786363
  103 1     2      0.00000      6.77787     12.07630      4.99309   #    H9   0.30637475   0.56728501   0.24305833
  104 1     2      0.00000      3.82012     16.02215      0.59301   #   H11   0.17267984   0.77536814   0.02886709
  105 1     2      0.00000      6.29992     13.85389      8.95241   #   H13   0.28475382   0.63863872   0.43579409
  106 1     2      0.00000      7.10314     12.31376      0.88066   #   H14   0.32109310   0.59430518   0.04286951
  107 1     2      0.00000      6.29945     13.38707      2.93942   #   H15   0.28475389   0.63863871   0.14308783
  108 1     1      0.00000      0.92688     14.89096      6.79784   #    C1   0.04186769   0.69708893   0.33091206
  109 1     1      0.00000      0.17206     14.64034      8.00280   #    C2   0.00774140   0.68038529   0.38956830
  110 1     1      0.00000      0.85806     14.39185      9.19752   #    C3   0.03874887   0.66382363   0.44772605
  111 1     1      0.00000      0.13521     13.35107      0.09613   #    C4   0.00610379   0.64760493   0.00467944
  112 1     1      0.00000      9.14357     14.39142      9.19959   #    C5   0.41330242   0.66379502   0.44782656
  113 1     1      0.00000      9.82415     14.64074      8.00090   #    C6   0.44407234   0.68041171   0.38947549
  114 1     1      0.00000      9.06812     14.89119      6.79672   #    C7   0.40989949   0.69710443   0.33085765
  115 1     1      0.00000      4.99703     11.16393      5.83178   #    C8   0.22586781   0.51984510   0.28388521
  116 1     1      0.00000      4.36834     20.24301      6.12792   #    C9   0.19744093   0.95936373   0.29830108
  117 1     1      0.00000      4.99713     19.01979      5.83178   #   C10   0.22586778   0.90111322   0.28388522
  118 1     1      0.00000      6.26870     19.03245      5.23293   #   C11   0.28335244   0.90398402   0.25473349
  119 1     1      0.00000      6.89765     20.24297      4.93673   #   C12   0.31178479   0.96385035   0.24031480
  120 1     1      0.00000      6.26860     11.15124      5.23292   #   C13   0.28335243   0.52148549   0.25473345
  121 1     1      0.00000      4.99677     14.78783      1.91563   #   C14   0.22586780   0.71047915   0.09325113
  122 1     1      0.00000      4.53673     15.21269      0.65580   #   C15   0.20507525   0.73584590   0.03192349
  123 1     1      0.00000      4.99738     15.39589      9.74793   #   C16   0.22586780   0.71047915   0.47451929
  124 1     1      0.00000      5.92749     14.34626      9.84206   #   C17   0.26791438   0.65918268   0.47910147
  125 1     1      0.00000      6.38682     13.12289      0.81789   #   C18   0.28871098   0.63381104   0.03981427
  126 1     1      0.00000      5.92688     13.73623      1.98449   #   C19   0.26791444   0.65918269   0.09660293
  127 1     1      0.00000      4.99724     15.22767      8.26746   #   C20   0.22586645   0.70789297   0.40245144
  128 1     1      0.00000      4.99682     14.95606      3.39610   #   C21   0.22586481   0.71306585   0.16531874
  129 1     1      0.00000      4.99704     17.53074      5.77864   #   C22   0.22586468   0.82904543   0.28129831
  130 1     1      0.00000      4.99702     12.65298      5.88492   #   C23   0.22586653   0.59191262   0.28647191
  131 1     3      0.00000      1.53191     15.09185      5.83199   #    N1   0.06922169   0.71047797   0.28389533
  132 1     4      0.00000      9.83703     13.35597      0.07259   #    N2   0.44468292   0.64793117   0.00353383
  133 1     3      0.00000      8.46212     15.09196      5.83146   #    N3   0.38250811   0.71048537   0.28386946
  134 1     5      0.00000      6.10891     15.01247      3.89286   #    O1   0.27613587   0.71393163   0.18950031
  135 1     5      0.00000      6.10925     15.17126      7.77049   #    O2   0.27613783   0.70702768   0.37825973
  136 1     5      0.00000      6.10908     17.03102      5.76076   #    O3   0.27613573   0.80485982   0.28042772
  137 1     5      0.00000      6.10908     13.15271      5.90259   #    O4   0.27613793   0.61609949   0.28733228
  138 1     5      0.00000      3.88494     17.03101      5.76096   #    O5   0.17559184   0.80485851   0.28043784
  139 1     5      0.00000      3.88512     15.17126      7.77070   #    O6   0.17559394   0.70702716   0.37826982
  140 1     5      0.00000      3.88478     15.01247      3.89305   #    O7   0.17559198   0.71393108   0.18950963
  141 1     5      0.00000      3.88495     13.15271      5.90279   #    O8   0.17559404   0.61609894   0.28734164
  142 1     6      0.00000      3.53261     15.88928     16.10329   #   Zn1   0.15962939   0.71047836   0.78389162
  143 1     6      0.00000      6.46301     15.88929     16.10302   #   Zn2   0.29210042   0.71047964   0.78387850
  144 1     2      0.00000      1.94204     15.18366     19.49590   #    H1   0.08771462   0.66344929   0.94904055
  145 1     2      0.00000      0.65680     13.95541     11.29584   #    H2   0.02964345   0.63473587   0.54987024
  146 1     2      0.00000      8.06174     15.18334     19.49741   #    H3   0.36436087   0.66342831   0.94911428
  147 1     2      0.00000      3.38943     21.04045     16.86069   #    H5   0.15315093   0.95762591   0.82076145
  148 1     2      0.00000      6.77875     18.90480     15.26446   #    H7   0.30637475   0.85999118   0.74305840
  149 1     2      0.00000      7.87775     21.04039     14.74689   #    H8   0.35605653   0.96558754   0.71786363
  150 1     2      0.00000      6.77867     12.87372     15.26446   #    H9   0.30637475   0.56728501   0.74305833
  151 1     2      0.00000      3.82092     16.81958     10.86438   #   H11   0.17267984   0.77536814   0.52886709
  152 1     2      0.00000      6.30072     14.65132     19.22378   #   H13   0.28475382   0.63863872   0.93579409
  153 1     2      0.00000      7.10394     13.11119     11.15203   #   H14   0.32109310   0.59430518   0.54286951
  154 1     2      0.00000      6.30025     14.18450     13.21079   #   H15   0.28475389   0.63863871   0.64308783
  155 1     1      0.00000      0.92768     15.68839     17.06921   #    C1   0.04186769   0.69708893   0.83091206
  156 1     1      0.00000      0.17286     15.43776     18.27418   #    C2   0.00774140   0.68038529   0.88956830
  157 1     1      0.00000      0.85886     15.18927     19.46889   #    C3   0.03874887   0.66382363   0.94772605
  158 1     1      0.00000      0.13601     14.14850     10.36750   #    C4   0.00610379   0.64760493   0.50467944
  159 1     1      0.00000      9.14437     15.18884     19.47096   #    C5   0.41330242   0.66379502   0.94782656
  160 1     1      0.00000      9.82494     15.43816     18.27227   #    C6   0.44407234   0.68041171   0.88947549
  161 1     1      0.00000      9.06892     15.68862     17.06810   #    C7   0.40989949   0.69710443   0.83085765
  162 1     1      0.00000      4.99782     11.96136     16.10315   #    C8   0.22586781   0.51984510   0.78388521
  163 1     1      0.00000      4.36914     21.04043     16.39930   #    C9   0.19744093   0.95936373   0.79830108
  164 1     1      0.00000      4.99793     19.81722     16.10315   #   C10   0.22586778   0.90111322   0.78388522
  165 1     1      0.00000      6.26950     19.82988     15.50430   #   C11   0.28335244   0.90398402   0.75473349
  166 1     1      0.00000      6.89845     21.04040     15.20810   #   C12   0.31178479   0.96385035   0.74031480
  167 1     1      0.00000      6.26940     11.94866     15.50430   #   C13   0.28335243   0.52148549   0.75473345
  168 1     1      0.00000      4.99757     15.58525     12.18701   #   C14   0.22586780   0.71047915   0.59325113
  169 1     1      0.00000      4.53753     16.01012     10.92717   #   C15   0.20507525   0.73584590   0.53192349
  170 1     1      0.00000      4.99818     16.19332     20.01930   #   C16   0.22586780   0.71047915   0.97451929
  171 1     1      0.00000      5.92829     15.14369     20.11343   #   C17   0.26791438   0.65918268   0.97910147
  172 1     1      0.00000      6.38762     13.92032     11.08927   #   C18   0.28871098   0.63381104   0.53981427
  173 1     1      0.00000      5.92768     14.53366     12.25586   #   C19   0.26791444   0.65918269   0.59660293
  174 1     1      0.00000      4.99803     16.02510     18.53883   #   C20   0.22586645   0.70789297   0.90245144
  175 1     1      0.00000      4.99762     15.75349     13.66747   #   C21   0.22586481   0.71306585   0.66531874
  176 1     1      0.00000      4.99784     18.32817     16.05001   #   C22   0.22586468   0.82904543   0.78129831
  177 1     1      0.00000      4.99782     13.45040     16.15629   #   C23   0.22586653   0.59191262   0.78647191
  178 1     3      0.00000      1.53270     15.88928     16.10336   #    N1   0.06922169   0.71047797   0.78389533
  179 1     4      0.00000      9.83783     14.15339     10.34397   #    N2   0.44468292   0.64793117   0.50353383
  180 1     3      0.00000      8.46292     15.88939     16.10283   #    N3   0.38250811   0.71048537   0.78386946
  181 1     5      0.00000      6.10971     15.80989     14.16423   #    O1   0.27613587   0.71393163   0.68950031
  182 1     5      0.00000      6.11005     15.96868     18.04187   #    O2   0.27613783   0.70702768   0.87825973
  183 1     5      0.00000      6.10988     17.82844     16.03213   #    O3   0.27613573   0.80485982   0.78042772
  184 1     5      0.00000      6.10988     13.95013     16.17397   #    O4   0.27613793   0.61609949   0.78733228
  185 1     5      0.00000      3.88574     17.82843     16.03234   #    O5   0.17559184   0.80485851   0.78043784
  186 1     5      0.00000      3.88592     15.96869     18.04207   #    O6   0.17559394   0.70702716   0.87826982
  187 1     5      0.00000      3.88557     15.80990     14.16442   #    O7   0.17559198   0.71393108   0.68950963
  188 1     5      0.00000      3.88575     13.95014     16.17416   #    O8   0.17559404   0.61609894   0.78734164
  189 1     6      0.00000     14.59219      4.78958      5.83191   #   Zn1   0.65962939   0.21047836   0.28389162
  190 1     6      0.00000     17.52259      4.78958      5.83164   #   Zn2   0.79210042   0.21047964   0.28387850
  191 1     2      0.00000     13.00161      4.08395      9.22453   #    H1   0.58771462   0.16344929   0.44904055
  192 1     2      0.00000     11.71637      2.85571      1.02447   #    H2   0.52964345   0.13473587   0.04987024
  193 1     2      0.00000     19.12131      4.08364      9.22604   #    H3   0.86436087   0.16342831   0.44911428
  194 1     2      0.00000     14.44901      9.94074      6.58932   #    H5   0.65315093   0.45762591   0.32076145
  195 1     2      0.00000     17.83832      7.80510      4.99309   #    H7   0.80637475   0.35999118   0.24305840
  196 1     2      0.00000     18.93733      9.94068      4.47552   #    H8   0.85605653   0.46558754   0.21786363
  197 1     2      0.00000     17.83824      1.77402      4.99309   #    H9   0.80637475   0.06728501   0.24305833
  198 1     2      0.00000     14.88049      5.71988      0.59301   #   H11   0.67267984   0.27536814   0.02886709
  199 1     2      0.00000     17.36029      3.55162      8.95241   #   H13   0.78475382   0.13863872   0.43579409
  200 1     2      0.00000     18.16352      2.01149      0.88066   #   H14   0.82109310   0.09430518   0.04286951
  201 1     2      0.00000     17.35983      3.08479      2.93942   #   H15   0.78475389   0.13863871   0.14308783
  202 1     1      0.00000     11.98725      4.58869      6.79784   #    C1   0.54186769   0.19708893   0.33091206
  203 1     1      0.00000     11.23243      4.33806      8.00280   #    C2   0.50774140   0.18038529   0.38956830
  204 1     1      0.00000     11.91844      4.08957      9.19752   #    C3   0.53874887   0.16382363   0.44772605
  205 1     1      0.00000     11.19558      3.04880      0.09613   #    C4   0.50610379   0.14760493   0.00467944
  206 1     1      0.00000     20.20395      4.08914      9.19959   #    C5   0.91330242   0.16379502   0.44782656
  207 1     1      0.00000     20.88452      4.33846      8.00090   #    C6   0.94407234   0.18041171   0.38947549
  208 1     1      0.00000     20.12849      4.58892      6.79672   #    C7   0.90989949   0.19710443   0.33085765
  209 1     1      0.00000     16.05740      0.86165      5.83178   #    C8   0.72586781   0.01984510   0.28388521
  210 1     1      0.00000     15.42871      9.94073      6.12792   #    C9   0.69744093   0.45936373   0.29830108
  211 1     1      0.00000     16.05750      8.71751      5.83178   #   C10   0.72586778   0.40111322   0.28388522
  212 1     1      0.00000     17.32908      8.73017      5.23293   #   C11   0.78335244   0.40398402   0.25473349
  213 1     1      0.00000     17.95802      9.94070      4.93673   #   C12   0.81178479   0.46385035   0.24031480
  214 1     1      0.00000     17.32897      0.84896      5.23292   #   C13   0.78335243   0.02148549   0.25473345
  215 1     1      0.00000     16.05715      4.48555      1.91563   #   C14   0.72586780   0.21047915   0.09325113
  216 1     1      0.00000     15.59710      4.91041      0.65580   #   C15   0.70507525   0.23584590   0.03192349
  217 1     1      0.00000     16.05776      5.09362      9.74793   #   C16   0.72586780   0.21047915   0.47451929
  218 1     1      0.00000     16.98786      4.04398      9.84206   #   C17   0.76791438   0.15918268   0.47910147
  219 1     1      0.00000     17.44720      2.82061      0.81789   #   C18   0.78871098   0.13381104   0.03981427
  220 1     1      0.00000     16.98725      3.43396      1.98449   #   C19   0.76791444   0.15918269   0.09660293
  221 1     1      0.00000     16.05761      4.92539      8.26746   #   C20   0.72586645   0.20789297   0.40245144
  222 1     1      0.00000     16.05720      4.65379      3.39610   #   C21   0.72586481   0.21306585   0.16531874
  223 1     1      0.00000     16.05741      7.22846      5.77864   #   C22   0.72586468   0.32904543   0.28129831
  224 1     1      0.00000     16.05739      2.35070      5.88492   #   C23   0.72586653   0.09191262   0.28647191
  225 1     3      0.00000     12.59228      4.78958      5.83199   #    N1   0.56922169   0.21047797   0.28389533
  226 1     4      0.00000     20.89740      3.05369      0.07259   #    N2   0.94468292   0.14793117   0.00353383
  227 1     3      0.00000     19.52250      4.78969      5.83146   #    N3   0.88250811   0.21048537   0.28386946
  228 1     5      0.00000     17.16928      4.71019      3.89286   #    O1   0.77613587   0.21393163   0.18950031
  229 1     5      0.00000     17.16963      4.86898      7.77049   #    O2   0.77613783   0.20702768   0.37825973
  230 1     5      0.00000     17.16945      6.72874      5.76076   #    O3   0.77613573   0.30485982   0.28042772
  231 1     5      0.00000     17.16946      2.85043      5.90259   #    O4   0.77613793   0.11609949   0.28733228
  232 1     5      0.00000     14.94532      6.72873      5.76096   #    O5   0.67559184   0.30485851   0.28043784