Created by Ryther's code on 2025-07-25 17:28:33.268198, modified by xyan11@uic.edu. 

    432 atoms
    520 bonds
    1056 angles
    992 dihedrals
    192 impropers

    7 atom types
    12 bond types
    26 angle types
    6 dihedral types
    2 improper types

0.00000000 28.94912415 xlo xhi
0.00000000 25.83728334 ylo yhi
0.00000000 20.5256752 zlo zhi
0.84495594 -0.00212349 1.81518499 xy xz yz 

Masses 

    1     32.065  #   S
    2    15.9994  #   O
    3    15.9994  #   O
    4    14.0067  #   N
    5    1.00794  #   H
    6      65.38  #  Zn
    7    12.0107  #   C

Pair Coeffs

    1       0.27400      3.59478  #  S_3 S_3
    2       0.06000      3.11815  #  O_2_M O_2_M
    3       0.06000      3.11815  #  O_3_M O_3_M
    4       0.06900      3.26069  #  N_2 N_2
    5       0.04400      2.57113  #  H_ H_
    6       0.12400      2.46155  #  Zn3+2 Zn3+2
    7       0.10500      3.43085  #  C_R C_R

Bond Coeffs

    1     131.87166      1.96411  #  O_2_M Zn3+2 bond order=0.5
    2     169.60151      1.86783  #  N_2 Zn3+2 bond order=1.0
    3      83.70832      1.54605  #  H_ Zn3+2 bond order=1.0
    4     126.84659      1.98971  #  O_3_M Zn3+2 bond order=0.5
    5     357.44038      1.08142  #  C_R H_ bond order=1.0
    6     559.94651      0.99025  #  H_ O_3_M bond order=1.0
    7     462.65505      1.37926  #  C_R C_R bond order=1.5
    8     931.53598      1.20133  #  C_R N_2 bond order=3.0
    9     301.29678      1.78592  #  C_R S_3 bond order=1.0
    10    391.66951      1.45800  #  C_R C_R bond order=1.0
    11    714.49531      1.26901  #  C_R O_2_M bond order=1.5
    12    677.96894      1.29140  #  C_R O_3_M bond order=1.5

Angle Coeffs

    1  fourier                168.93786      0.34375      0.37500      0.28125  #  N_2 Zn3+2 O_2_M
    2  fourier                141.94394      0.34375      0.37500      0.28125  #  O_2_M Zn3+2 O_2_M
    3  fourier                 59.97536      0.34375      0.37500      0.28125  #  H_ Zn3+2 O_2_M
    4  fourier                 72.83028      0.34375      0.37500      0.28125  #  H_ Zn3+2 N_2
    5  fourier                 27.89484      0.34375      0.37500      0.28125  #  H_ Zn3+2 H_
    6  fourier                 58.51091      0.34375      0.37500      0.28125  #  H_ Zn3+2 O_3_M
    7  fourier                139.19354      0.34375      0.37500      0.28125  #  O_2_M Zn3+2 O_3_M
    8  fourier                165.48270      0.34375      0.37500      0.28125  #  N_2 Zn3+2 O_3_M
    9  cosine/periodic         61.24131            1            1  #  O_3_M H_ Zn3+2
    10 cosine/periodic         19.22822            1            1  #  Zn3+2 H_ Zn3+2
    11 cosine/periodic        179.74893           -1            3  #  C_R C_R N_2
    12 cosine/periodic        111.29751           -1            3  #  C_R C_R C_R
    13 cosine/periodic        101.95051           -1            3  #  C_R C_R S_3
    14 cosine/periodic         57.28902           -1            3  #  C_R C_R H_
    15 cosine/periodic        102.18328           -1            3  #  C_R C_R C_R
    16 cosine/periodic        102.18328           -1            3  #  C_R C_R C_R
    17 cosine/periodic        137.70227           -1            3  #  C_R C_R O_2_M
    18 cosine/periodic        206.74247           -1            3  #  O_2_M C_R O_2_M
    19 cosine/periodic        134.56278           -1            3  #  C_R C_R O_3_M
    20 cosine/periodic        201.34548           -1            3  #  O_2_M C_R O_3_M
    21 fourier                211.54307      0.25101      0.03669      0.25034  #  C_R S_3 C_R
    22 fourier                123.90958      0.36401      0.41847      0.28800  #  C_R N_2 Zn3+2
    23 cosine/periodic         44.54794           -1            3  #  C_R O_2_M Zn3+2
    24 fourier                 50.82090      0.30023      0.26733      0.26675  #  H_ O_3_M Zn3+2
    25 fourier                118.37950      0.30023      0.26733      0.26675  #  C_R O_3_M Zn3+2
    26 fourier                203.65891      0.30023      0.26733      0.26675  #  C_R O_3_M H_

Dihedral Coeffs

    1       6.73711           -1            2  #  X C_R C_R X bond order=1.5
    2      27.96100           -1            2  #  X C_R N_2 X bond order=3.0
    3       1.22984           -1            2  #  X C_R S_3 X bond order=1.0
    4       1.25000           -1            2  #  X C_R C_R X bond order=1.0
    5       6.73711           -1            2  #  X C_R O_2_M X bond order=1.5
    6       0.31957           -1            2  #  X C_R O_3_M X bond order=1.5

Improper Coeffs

    1       2.00000      1.00000     -1.00000      0.00000            1  #  C_R X X X O_2 present=False
    2      16.66667      1.00000     -1.00000      0.00000            1  #  C_R X X X O_2 present=True

Atoms # a, b, c, alpha, beta, gamma: 28.9491241474, 25.8510959320, 20.6057817984, 84.9491049092, 90.0059044957, 88.1269253033 $$$atoms$$$

    1 1     6      0.00000     14.16747      2.22976      5.66755   #   Zn1   0.48745967   0.06690142   0.27611999
    2 1     6      0.00000      2.62331      2.22972      5.66750   #   Zn2   0.08868540   0.06689996   0.27611781
    3 1     5      0.00000     10.11254     12.53872      4.81121   #    H1   0.33565433   0.46882815   0.23439976
    4 1     5      0.00000      7.52320     12.53873      4.81121   #    H2   0.24620965   0.46882827   0.23439943
    5 1     5      0.00000      1.84973      1.64341      5.90819   #    H3   0.06265071   0.04338375   0.28784394
    6 1     5      0.00000      3.62985     11.36819      6.40326   #    H4   0.11320736   0.41807478   0.31196356
    7 1     5      0.00000      3.98496      8.95484      6.55022   #    H5   0.12821560   0.32416623   0.31912328
    8 1     5      0.00000      3.15058      6.66554      6.29305   #    H6   0.10195288   0.23644188   0.30659419
    9 1     5      0.00000      2.75933      3.19272      6.19902   #    H7   0.09235110   0.10235238   0.30201298
   10 1     5      0.00000     13.58280      6.00939      4.93156   #    H8   0.46291723   0.21570640   0.24026281
   11 1     5      0.00000     13.22730      8.42313      4.78445   #    H9   0.44789519   0.30963081   0.23309592
   12 1     5      0.00000     14.06194     10.71287      5.04170   #   H10   0.47416621   0.39737173   0.24562915
   13 1     5      0.00000      0.99944      1.67372      5.16281   #   H11   0.03316739   0.04710805   0.25152946
   14 1     5      0.00000      1.74329      3.83309      2.50076   #   H12   0.05614774   0.13979544   0.12183579
   15 1     5      0.00000      2.10584      4.80299      0.27317   #   H13   0.06734514   0.18495870   0.01330864
   16 1     5      0.00000      1.74449      4.37027      8.50871   #   H14   0.05620393   0.14002252   0.41453973
   17 1     5      0.00000      0.62945      0.08446      0.68311   #   H16   0.02171858   0.00093062   0.03328069
   18 1     7      0.00000     11.03805      1.99089      5.58909   #    C1   0.37962047   0.05792486   0.27229749
   19 1     7      0.00000      9.63628      1.69444      5.49182   #    C2   0.33152361   0.04678407   0.26755869
   20 1     7      0.00000      9.09535      0.47937      5.09315   #    C3   0.31416947   0.00112073   0.24813551
   21 1     7      0.00000      7.69543      0.47937      5.09315   #    C4   0.26581143   0.00112078   0.24813536
   22 1     7      0.00000      7.15450      1.69444      5.49182   #    C5   0.24579452   0.04678412   0.26755846
   23 1     7      0.00000      5.75273      1.99089      5.58909   #    C6   0.19704800   0.05792495   0.27229737
   24 1     7      0.00000      1.58053     11.22069      5.71098   #    C7   0.04251225   0.41473573   0.27823608
   25 1     7      0.00000      2.81699     10.70497      6.13536   #    C8   0.08585008   0.39332261   0.29891171
   26 1     7      0.00000      3.02171      9.32542      6.21996   #    C9   0.09448913   0.33963927   0.30303318
   27 1     7      0.00000      1.99288      8.43561      5.88144   #   C10   0.05991979   0.30635895   0.28654082
   28 1     7      0.00000      2.19142      7.04847      5.96403   #   C11   0.06835369   0.25238891   0.29056454
   29 1     7      0.00000      1.15829      6.15743      5.62408   #   C12   0.03363724   0.21906588   0.27400203
   30 1     7      0.00000     14.39544      6.67312      5.19937   #   C13   0.49026636   0.24047859   0.25331054
   31 1     7      0.00000     14.19055      8.05259      5.11472   #   C14   0.48162180   0.29415888   0.24918632
   32 1     7      0.00000      0.74485      8.94231      5.45324   #   C15   0.01619211   0.32743568   0.26567914
   33 1     7      0.00000      0.54648     10.32941      5.37071   #   C16   0.00776416   0.38140418   0.26165828
   34 1     7      0.00000      1.15816      1.88240      1.75499   #   C17   0.03806195   0.06684924   0.08550197
   35 1     7      0.00000      1.57617      3.21722      1.62605   #   C18   0.05098021   0.11895304   0.07922027
   36 1     7      0.00000      1.78370      3.77343      0.36256   #   C19   0.05738975   0.14480512   0.01766393
   37 1     7      0.00000      1.57644      3.91498      9.47674   #   C20   0.05101363   0.11908801   0.46170185
   38 1     7      0.00000      1.15818      2.57708      9.58007   #   C21   0.03808754   0.06695240   0.46673613
   39 1     7      0.00000      0.95176      1.11453      0.59323   #   C22   0.03167941   0.04110615   0.02890170
   40 1     7      0.00000      1.15815      2.39249      8.10155   #   C23   0.03814187   0.06486858   0.39470342
   41 1     7      0.00000      1.15810      2.06701      3.23350   #   C24   0.03800429   0.06893345   0.15753442
   42 1     7      0.00000      1.15818      4.66788      5.58741   #   C25   0.03531225   0.16154032   0.27221567
   43 1     7      0.00000      1.58055     12.71024      5.74765   #   C26   0.04083389   0.47226109   0.28002222
   44 1     1      0.00000      8.39539      2.77245      5.84552   #    S1   0.28747787   0.08729645   0.28479081
   45 1     4      0.00000     12.16756      2.22979      5.66747   #    N1   0.41837598   0.06690280   0.27611623
   46 1     4      0.00000      4.62322      2.22979      5.66747   #    N2   0.15776896   0.06690284   0.27611618
   47 1     2      0.00000      2.27015      2.12889      3.72969   #    O1   0.07639964   0.06963012   0.18170838
   48 1     2      0.00000      2.27020      2.33057      7.60533   #    O2   0.07657452   0.06417042   0.37052763
   49 1     3      0.00000      2.27021      4.16798      5.57514   #    O3   0.07428905   0.14223407   0.27161790
   50 1     2      0.00000      2.69262     13.21012      5.75988   #    O4   0.07868507   0.49156647   0.28061807
   51 1     2      0.00000     14.52064      4.16800      5.57518   #    O5   0.49745996   0.14223490   0.27161972
   52 1     2      0.00000     14.52063      2.33061      7.60537   #    O6   0.49974541   0.06417188   0.37052942
   53 1     2      0.00000     14.52058      2.12893      3.72971   #    O7   0.49957054   0.06963156   0.18170939
   54 1     2      0.00000      0.46849     13.21016      5.75990   #    O8   0.00185597   0.49156791   0.28061912
   55 1     6      0.00000     14.16641      3.13735     15.93039   #   Zn1   0.48745967   0.06690142   0.77611999
   56 1     6      0.00000      2.62224      3.13731     15.93034   #   Zn2   0.08868540   0.06689996   0.77611781
   57 1     5      0.00000     10.11148     13.44632     15.07405   #    H1   0.33565433   0.46882815   0.73439976
   58 1     5      0.00000      7.52213     13.44632     15.07404   #    H2   0.24620965   0.46882827   0.73439943
   59 1     5      0.00000      1.84867      2.55100     16.17103   #    H3   0.06265071   0.04338375   0.78784394
   60 1     5      0.00000      3.62878     12.27578     16.66610   #    H4   0.11320736   0.41807478   0.81196356
   61 1     5      0.00000      3.98390      9.86244     16.81306   #    H5   0.12821560   0.32416623   0.81912328
   62 1     5      0.00000      3.14952      7.57313     16.55589   #    H6   0.10195288   0.23644188   0.80659419
   63 1     5      0.00000      2.75826      4.10031     16.46186   #    H7   0.09235110   0.10235238   0.80201298
   64 1     5      0.00000     13.58174      6.91698     15.19439   #    H8   0.46291723   0.21570640   0.74026281
   65 1     5      0.00000     13.22624      9.33072     15.04729   #    H9   0.44789519   0.30963081   0.73309592
   66 1     5      0.00000     14.06087     11.62046     15.30454   #   H10   0.47416621   0.39737173   0.74562915
   67 1     5      0.00000      0.99838      2.58131     15.42565   #   H11   0.03316739   0.04710805   0.75152946
   68 1     5      0.00000      1.74223      4.74068     12.76360   #   H12   0.05614774   0.13979544   0.62183579
   69 1     5      0.00000      2.10477      5.71058     10.53601   #   H13   0.06734514   0.18495870   0.51330864
   70 1     5      0.00000      1.74343      5.27786     18.77155   #   H14   0.05620393   0.14002252   0.91453973
   71 1     5      0.00000      0.62839      0.99205     10.94595   #   H16   0.02171858   0.00093062   0.53328069
   72 1     7      0.00000     11.03698      2.89848     15.85193   #    C1   0.37962047   0.05792486   0.77229749
   73 1     7      0.00000      9.63522      2.60203     15.75466   #    C2   0.33152361   0.04678407   0.76755869
   74 1     7      0.00000      9.09429      1.38696     15.35599   #    C3   0.31416947   0.00112073   0.74813551
   75 1     7      0.00000      7.69437      1.38696     15.35598   #    C4   0.26581143   0.00112078   0.74813536
   76 1     7      0.00000      7.15344      2.60204     15.75466   #    C5   0.24579452   0.04678412   0.76755846
   77 1     7      0.00000      5.75167      2.89849     15.85192   #    C6   0.19704800   0.05792495   0.77229737
   78 1     7      0.00000      1.57947     12.12829     15.97382   #    C7   0.04251225   0.41473573   0.77823608
   79 1     7      0.00000      2.81593     11.61256     16.39820   #    C8   0.08585008   0.39332261   0.79891171
   80 1     7      0.00000      3.02065     10.23301     16.48280   #    C9   0.09448913   0.33963927   0.80303318
   81 1     7      0.00000      1.99182      9.34320     16.14428   #   C10   0.05991979   0.30635895   0.78654082
   82 1     7      0.00000      2.19036      7.95606     16.22687   #   C11   0.06835369   0.25238891   0.79056454
   83 1     7      0.00000      1.15723      7.06502     15.88691   #   C12   0.03363724   0.21906588   0.77400203
   84 1     7      0.00000     14.39438      7.58071     15.46221   #   C13   0.49026636   0.24047859   0.75331054
   85 1     7      0.00000     14.18949      8.96018     15.37756   #   C14   0.48162180   0.29415888   0.74918632
   86 1     7      0.00000      0.74379      9.84990     15.71608   #   C15   0.01619211   0.32743568   0.76567914
   87 1     7      0.00000      0.54542     11.23700     15.63355   #   C16   0.00776416   0.38140418   0.76165828
   88 1     7      0.00000      1.15710      2.79000     12.01782   #   C17   0.03806195   0.06684924   0.58550197
   89 1     7      0.00000      1.57511      4.12482     11.88889   #   C18   0.05098021   0.11895304   0.57922027
   90 1     7      0.00000      1.78264      4.68103     10.62540   #   C19   0.05738975   0.14480512   0.51766393
   91 1     7      0.00000      1.57538      4.82258     19.73958   #   C20   0.05101363   0.11908801   0.96170185
   92 1     7      0.00000      1.15712      3.48467     19.84291   #   C21   0.03808754   0.06695240   0.96673613
   93 1     7      0.00000      0.95070      2.02213     10.85606   #   C22   0.03167941   0.04110615   0.52890170
   94 1     7      0.00000      1.15708      3.30008     18.36439   #   C23   0.03814187   0.06486858   0.89470342
   95 1     7      0.00000      1.15704      2.97460     13.49634   #   C24   0.03800429   0.06893345   0.65753442
   96 1     7      0.00000      1.15711      5.57548     15.85025   #   C25   0.03531225   0.16154032   0.77221567
   97 1     7      0.00000      1.57949     13.61783     16.01048   #   C26   0.04083389   0.47226109   0.78002222
   98 1     1      0.00000      8.39433      3.68004     16.10836   #    S1   0.28747787   0.08729645   0.78479081
   99 1     4      0.00000     12.16650      3.13738     15.93031   #    N1   0.41837598   0.06690280   0.77611623
  100 1     4      0.00000      4.62216      3.13738     15.93031   #    N2   0.15776896   0.06690284   0.77611618
  101 1     2      0.00000      2.26909      3.03648     13.99252   #    O1   0.07639964   0.06963012   0.68170838
  102 1     2      0.00000      2.26914      3.23816     17.86817   #    O2   0.07657452   0.06417042   0.87052763
  103 1     3      0.00000      2.26915      5.07557     15.83798   #    O3   0.07428905   0.14223407   0.77161790
  104 1     2      0.00000      2.69156     14.11771     16.02271   #    O4   0.07868507   0.49156647   0.78061807
  105 1     2      0.00000     14.51957      5.07560     15.83802   #    O5   0.49745996   0.14223490   0.77161972
  106 1     2      0.00000     14.51957      3.23820     17.86820   #    O6   0.49974541   0.06417188   0.87052942
  107 1     2      0.00000     14.51952      3.03652     13.99255   #    O7   0.49957054   0.06963156   0.68170939
  108 1     2      0.00000      0.46742     14.11775     16.02273   #    O8   0.00185597   0.49156791   0.78061912
  109 1     6      0.00000     14.58995     15.14840      5.66755   #   Zn1   0.48745967   0.56690142   0.27611999
  110 1     6      0.00000      3.04578     15.14836      5.66750   #   Zn2   0.08868540   0.56689996   0.27611781
  111 1     5      0.00000     10.53502     25.45737      4.81121   #    H1   0.33565433   0.96882815   0.23439976
  112 1     5      0.00000      7.94567     25.45737      4.81121   #    H2   0.24620965   0.96882827   0.23439943
  113 1     5      0.00000      2.27221     14.56205      5.90819   #    H3   0.06265071   0.54338375   0.28784394
  114 1     5      0.00000      4.05232     24.28683      6.40326   #    H4   0.11320736   0.91807478   0.31196356
  115 1     5      0.00000      4.40744     21.87348      6.55022   #    H5   0.12821560   0.82416623   0.31912328
  116 1     5      0.00000      3.57306     19.58418      6.29305   #    H6   0.10195288   0.73644188   0.30659419
  117 1     5      0.00000      3.18180     16.11136      6.19902   #    H7   0.09235110   0.60235238   0.30201298
  118 1     5      0.00000     14.00528     18.92803      4.93156   #    H8   0.46291723   0.71570640   0.24026281
  119 1     5      0.00000     13.64978     21.34177      4.78445   #    H9   0.44789519   0.80963081   0.23309592
  120 1     5      0.00000     14.48441     23.63151      5.04170   #   H10   0.47416621   0.89737173   0.24562915
  121 1     5      0.00000      1.42192     14.59236      5.16281   #   H11   0.03316739   0.54710805   0.25152946
  122 1     5      0.00000      2.16577     16.75173      2.50076   #   H12   0.05614774   0.63979544   0.12183579
  123 1     5      0.00000      2.52831     17.72163      0.27317   #   H13   0.06734514   0.68495870   0.01330864
  124 1     5      0.00000      2.16696     17.28891      8.50871   #   H14   0.05620393   0.64002252   0.41453973
  125 1     5      0.00000      1.05193     13.00310      0.68311   #   H16   0.02171858   0.50093062   0.03328069
  126 1     7      0.00000     11.46052     14.90953      5.58909   #    C1   0.37962047   0.55792486   0.27229749
  127 1     7      0.00000     10.05876     14.61308      5.49182   #    C2   0.33152361   0.54678407   0.26755869
  128 1     7      0.00000      9.51783     13.39801      5.09315   #    C3   0.31416947   0.50112073   0.24813551
  129 1     7      0.00000      8.11791     13.39801      5.09315   #    C4   0.26581143   0.50112078   0.24813536
  130 1     7      0.00000      7.57698     14.61308      5.49182   #    C5   0.24579452   0.54678412   0.26755846
  131 1     7      0.00000      6.17521     14.90953      5.58909   #    C6   0.19704800   0.55792495   0.27229737
  132 1     7      0.00000      2.00301     24.13934      5.71098   #    C7   0.04251225   0.91473573   0.27823608
  133 1     7      0.00000      3.23947     23.62361      6.13536   #    C8   0.08585008   0.89332261   0.29891171
  134 1     7      0.00000      3.44419     22.24406      6.21996   #    C9   0.09448913   0.83963927   0.30303318
  135 1     7      0.00000      2.41535     21.35425      5.88144   #   C10   0.05991979   0.80635895   0.28654082
  136 1     7      0.00000      2.61390     19.96711      5.96403   #   C11   0.06835369   0.75238891   0.29056454
  137 1     7      0.00000      1.58077     19.07607      5.62408   #   C12   0.03363724   0.71906588   0.27400203
  138 1     7      0.00000     14.81792     19.59176      5.19937   #   C13   0.49026636   0.74047859   0.25331054
  139 1     7      0.00000     14.61303     20.97123      5.11472   #   C14   0.48162180   0.79415888   0.24918632
  140 1     7      0.00000      1.16733     21.86095      5.45324   #   C15   0.01619211   0.82743568   0.26567914
  141 1     7      0.00000      0.96896     23.24805      5.37071   #   C16   0.00776416   0.88140418   0.26165828
  142 1     7      0.00000      1.58064     14.80105      1.75499   #   C17   0.03806195   0.56684924   0.08550197
  143 1     7      0.00000      1.99865     16.13586      1.62605   #   C18   0.05098021   0.61895304   0.07922027
  144 1     7      0.00000      2.20618     16.69208      0.36256   #   C19   0.05738975   0.64480512   0.01766393
  145 1     7      0.00000      1.99892     16.83363      9.47674   #   C20   0.05101363   0.61908801   0.46170185
  146 1     7      0.00000      1.58066     15.49572      9.58007   #   C21   0.03808754   0.56695240   0.46673613
  147 1     7      0.00000      1.37424     14.03317      0.59323   #   C22   0.03167941   0.54110615   0.02890170
  148 1     7      0.00000      1.58062     15.31113      8.10155   #   C23   0.03814187   0.56486858   0.39470342
  149 1     7      0.00000      1.58058     14.98565      3.23350   #   C24   0.03800429   0.56893345   0.15753442
  150 1     7      0.00000      1.58065     17.58653      5.58741   #   C25   0.03531225   0.66154032   0.27221567
  151 1     7      0.00000      2.00303     25.62888      5.74765   #   C26   0.04083389   0.97226109   0.28002222
  152 1     1      0.00000      8.81787     15.69109      5.84552   #    S1   0.28747787   0.58729645   0.28479081
  153 1     4      0.00000     12.59004     15.14843      5.66747   #    N1   0.41837598   0.56690280   0.27611623
  154 1     4      0.00000      5.04569     15.14843      5.66747   #    N2   0.15776896   0.56690284   0.27611618
  155 1     2      0.00000      2.69263     15.04753      3.72969   #    O1   0.07639964   0.56963012   0.18170838
  156 1     2      0.00000      2.69268     15.24921      7.60533   #    O2   0.07657452   0.56417042   0.37052763
  157 1     3      0.00000      2.69269     17.08662      5.57514   #    O3   0.07428905   0.64223407   0.27161790
  158 1     2      0.00000      3.11510     26.12876      5.75988   #    O4   0.07868507   0.99156647   0.28061807
  159 1     2      0.00000     14.94311     17.08665      5.57518   #    O5   0.49745996   0.64223490   0.27161972
  160 1     2      0.00000     14.94311     15.24925      7.60537   #    O6   0.49974541   0.56417188   0.37052942
  161 1     2      0.00000     14.94306     15.04757      3.72971   #    O7   0.49957054   0.56963156   0.18170939
  162 1     2      0.00000      0.89096     26.12880      5.75990   #    O8   0.00185597   0.99156791   0.28061912
  163 1     6      0.00000     14.58889     16.05599     15.93039   #   Zn1   0.48745967   0.56690142   0.77611999
  164 1     6      0.00000      3.04472     16.05595     15.93034   #   Zn2   0.08868540   0.56689996   0.77611781
  165 1     5      0.00000     10.53396     26.36496     15.07405   #    H1   0.33565433   0.96882815   0.73439976
  166 1     5      0.00000      7.94461     26.36496     15.07404   #    H2   0.24620965   0.96882827   0.73439943
  167 1     5      0.00000      2.27115     15.46964     16.17103   #    H3   0.06265071   0.54338375   0.78784394
  168 1     5      0.00000      4.05126     25.19442     16.66610   #    H4   0.11320736   0.91807478   0.81196356
  169 1     5      0.00000      4.40637     22.78108     16.81306   #    H5   0.12821560   0.82416623   0.81912328
  170 1     5      0.00000      3.57199     20.49178     16.55589   #    H6   0.10195288   0.73644188   0.80659419
  171 1     5      0.00000      3.18074     17.01895     16.46186   #    H7   0.09235110   0.60235238   0.80201298
  172 1     5      0.00000     14.00422     19.83562     15.19439   #    H8   0.46291723   0.71570640   0.74026281
  173 1     5      0.00000     13.64872     22.24937     15.04729   #    H9   0.44789519   0.80963081   0.73309592
  174 1     5      0.00000     14.48335     24.53910     15.30454   #   H10   0.47416621   0.89737173   0.74562915
  175 1     5      0.00000      1.42085     15.49995     15.42565   #   H11   0.03316739   0.54710805   0.75152946
  176 1     5      0.00000      2.16471     17.65932     12.76360   #   H12   0.05614774   0.63979544   0.62183579
  177 1     5      0.00000      2.52725     18.62922     10.53601   #   H13   0.06734514   0.68495870   0.51330864
  178 1     5      0.00000      2.16590     18.19650     18.77155   #   H14   0.05620393   0.64002252   0.91453973
  179 1     5      0.00000      1.05087     13.91069     10.94595   #   H16   0.02171858   0.50093062   0.53328069
  180 1     7      0.00000     11.45946     15.81713     15.85193   #    C1   0.37962047   0.55792486   0.77229749
  181 1     7      0.00000     10.05770     15.52068     15.75466   #    C2   0.33152361   0.54678407   0.76755869
  182 1     7      0.00000      9.51677     14.30560     15.35599   #    C3   0.31416947   0.50112073   0.74813551
  183 1     7      0.00000      8.11684     14.30560     15.35598   #    C4   0.26581143   0.50112078   0.74813536
  184 1     7      0.00000      7.57591     15.52068     15.75466   #    C5   0.24579452   0.54678412   0.76755846
  185 1     7      0.00000      6.17415     15.81713     15.85192   #    C6   0.19704800   0.55792495   0.77229737
  186 1     7      0.00000      2.00195     25.04693     15.97382   #    C7   0.04251225   0.91473573   0.77823608
  187 1     7      0.00000      3.23841     24.53120     16.39820   #    C8   0.08585008   0.89332261   0.79891171
  188 1     7      0.00000      3.44313     23.15165     16.48280   #    C9   0.09448913   0.83963927   0.80303318
  189 1     7      0.00000      2.41429     22.26184     16.14428   #   C10   0.05991979   0.80635895   0.78654082
  190 1     7      0.00000      2.61284     20.87471     16.22687   #   C11   0.06835369   0.75238891   0.79056454
  191 1     7      0.00000      1.57970     19.98367     15.88691   #   C12   0.03363724   0.71906588   0.77400203
  192 1     7      0.00000     14.81685     20.49935     15.46221   #   C13   0.49026636   0.74047859   0.75331054
  193 1     7      0.00000     14.61197     21.87882     15.37756   #   C14   0.48162180   0.79415888   0.74918632
  194 1     7      0.00000      1.16627     22.76854     15.71608   #   C15   0.01619211   0.82743568   0.76567914
  195 1     7      0.00000      0.96790     24.15564     15.63355   #   C16   0.00776416   0.88140418   0.76165828
  196 1     7      0.00000      1.57958     15.70864     12.01782   #   C17   0.03806195   0.56684924   0.58550197
  197 1     7      0.00000      1.99759     17.04346     11.88889   #   C18   0.05098021   0.61895304   0.57922027
  198 1     7      0.00000      2.20512     17.59967     10.62540   #   C19   0.05738975   0.64480512   0.51766393
  199 1     7      0.00000      1.99786     17.74122     19.73958   #   C20   0.05101363   0.61908801   0.96170185
  200 1     7      0.00000      1.57960     16.40331     19.84291   #   C21   0.03808754   0.56695240   0.96673613
  201 1     7      0.00000      1.37318     14.94077     10.85606   #   C22   0.03167941   0.54110615   0.52890170
  202 1     7      0.00000      1.57956     16.21872     18.36439   #   C23   0.03814187   0.56486858   0.89470342
  203 1     7      0.00000      1.57952     15.89324     13.49634   #   C24   0.03800429   0.56893345   0.65753442
  204 1     7      0.00000      1.57959     18.49412     15.85025   #   C25   0.03531225   0.66154032   0.77221567
  205 1     7      0.00000      2.00197     26.53647     16.01048   #   C26   0.04083389   0.97226109   0.78002222
  206 1     1      0.00000      8.81681     16.59869     16.10836   #    S1   0.28747787   0.58729645   0.78479081
  207 1     4      0.00000     12.58898     16.05602     15.93031   #    N1   0.41837598   0.56690280   0.77611623
  208 1     4      0.00000      5.04463     16.05602     15.93031   #    N2   0.15776896   0.56690284   0.77611618
  209 1     2      0.00000      2.69157     15.95512     13.99252   #    O1   0.07639964   0.56963012   0.68170838
  210 1     2      0.00000      2.69162     16.15680     17.86817   #    O2   0.07657452   0.56417042   0.87052763
  211 1     3      0.00000      2.69162     17.99421     15.83798   #    O3   0.07428905   0.64223407   0.77161790
  212 1     2      0.00000      3.11404     27.03635     16.02271   #    O4   0.07868507   0.99156647   0.78061807
  213 1     2      0.00000     14.94205     17.99424     15.83802   #    O5   0.49745996   0.64223490   0.77161972
  214 1     2      0.00000     14.94204     16.15684     17.86820   #    O6   0.49974541   0.56417188   0.87052942
  215 1     2      0.00000     14.94200     15.95516     13.99255   #    O7   0.49957054   0.56963156   0.68170939
  216 1     2      0.00000      0.88990     27.03639     16.02273   #    O8   0.00185597   0.99156791   0.78061912
  217 1     6      0.00000     28.64203      2.22976      5.66755   #   Zn1   0.98745967   0.06690142   0.27611999
  218 1     6      0.00000     17.09787      2.22972      5.66750   #   Zn2   0.58868540   0.06689996   0.27611781