Created by Ryther's code on 2025-07-31 16:51:46.245831, modified by xyan11@uic.edu. 

    1152 atoms
    1536 bonds
    3648 angles
    2880 dihedrals
    576 impropers

    6 atom types
    8 bond types
    17 angle types
    4 dihedral types
    3 improper types

0.00000000 21.868 xlo xhi
0.00000000 23.5854 ylo yhi
0.00000000 38.4304 zlo zhi
0.0 0.0 0.0 xy xz yz 

Masses 

    1    12.0107  #   C
    2     157.25  #  Gd
    3    1.00794  #   H
    4    14.0067  #   N
    5    15.9994  #   O
    6    15.9994  #   O

Pair Coeffs

    1       0.10500      3.43085  #  C_R C_R
    2       0.00900      3.00055  #  Gd6f3 Gd6f3
    3       0.04400      2.57113  #  H_ H_
    4       0.06900      3.26069  #  N_R N_R
    5       0.06000      3.11815  #  O_1 O_1
    6       0.06000      3.11815  #  O_2_M O_2_M

Bond Coeffs

    1     220.01774      2.25536  #  Gd6f3 O_2_M bond order=0.5
    2     207.92819      2.37674  #  Gd6f3 N_R bond order=0.5
    3     357.44038      1.08142  #  C_R H_ bond order=1.0
    4     663.66675      1.34507  #  C_R N_R bond order=1.5
    5     462.65505      1.37926  #  C_R C_R bond order=1.5
    6     391.66951      1.45800  #  C_R C_R bond order=1.0
    7     714.55744      1.26901  #  C_R O_2_M bond order=1.5
    8     706.67500      1.27367  #  C_R O_1 bond order=1.5

Angle Coeffs

    1      82.73471            1            4  #  N_R Gd6f3 O_2_M
    2      81.20326            1            4  #  O_2_M Gd6f3 O_2_M
    3      84.87588            1            4  #  N_R Gd6f3 N_R
    4      79.78069           -1            3  #  H_ C_R N_R
    5     212.40917           -1            3  #  N_R C_R N_R
    6     153.68727           -1            3  #  C_R C_R N_R
    7     102.18328           -1            3  #  C_R C_R C_R
    8     140.82706           -1            3  #  C_R C_R N_R
    9      57.28902           -1            3  #  C_R C_R H_
    10    111.29751           -1            3  #  C_R C_R C_R
    11    137.71425           -1            3  #  C_R C_R O_2_M
    12    206.77843           -1            3  #  O_2_M C_R O_2_M
    13    137.04263           -1            3  #  C_R C_R O_1
    14    205.62388           -1            3  #  O_1 C_R O_2_M
    15     70.89262           -1            3  #  C_R N_R Gd6f3
    16    120.00052           -1            3  #  C_R N_R C_R
    17     83.32664           -1            3  #  C_R O_2_M Gd6f3

Dihedral Coeffs

    1       3.36856           -1            2  #  X C_R N_R X bond order=1.5
    2       3.36856           -1            2  #  X C_R C_R X bond order=1.5
    3       1.25000           -1            2  #  X C_R C_R X bond order=1.0
    4       6.73711           -1            2  #  X C_R O_2_M X bond order=1.5

Improper Coeffs

    1       2.00000      1.00000     -1.00000      0.00000            1  #  C_R X X X O_2 present=False
    2      16.66667      1.00000     -1.00000      0.00000            1  #  C_R X X X O_2 present=True
    3       2.00000      1.00000     -1.00000      0.00000            1  #  N_R X X X O_2 present=False

Atoms # a, b, c, alpha, beta, gamma: 21.8680000000, 23.5854000000, 38.4304000000, 90.0000000000, 90.0000000000, 90.0000000000 $$$atoms$$$

    1 1     2      0.00000      3.95920      9.93842      8.18260   #   Gd1   0.18105000   0.42138000   0.21292000
    2 1     2      0.00000      9.63132      0.34718      4.06152   #   Gd2   0.44043000   0.01472000   0.10568500
    3 1     2      0.00000      6.97480      1.85428     17.79020   #   Gd3   0.31895000   0.07862000   0.46292000
    4 1     2      0.00000      1.30268     11.44552     13.66912   #   Gd4   0.05957000   0.48528000   0.35568500
    5 1     2      0.00000      1.50780      4.04207      8.18260   #   Gd5   0.06895000   0.17138000   0.21292000
    6 1     2      0.00000      6.76968      6.24353      4.06152   #   Gd6   0.30957000   0.26472000   0.10568500
    7 1     2      0.00000      9.42620      7.75063     17.79020   #   Gd7   0.43105000   0.32862000   0.46292000
    8 1     2      0.00000      4.16432      5.54917     13.66912   #   Gd8   0.19043000   0.23528000   0.35568500
    9 1     3      0.00000      1.59418     11.75614      6.17961   #    H1   0.07290000   0.49845000   0.16080000
   10 1     3      0.00000      2.95983      8.83627      3.00334   #    H2   0.13535000   0.37465000   0.07815000
   11 1     3      0.00000      6.88186     10.59692      5.98169   #    H3   0.31470000   0.44930000   0.15565000
   12 1     3      0.00000      5.39265      3.07318      6.25839   #    H4   0.24660000   0.13030000   0.16285000
   13 1     3      0.00000      9.33982      0.03656     15.78721   #    H5   0.42710000   0.00155000   0.41080000
   14 1     3      0.00000      7.97417      2.95643     12.61094   #    H6   0.36465000   0.12535000   0.32815000
   15 1     3      0.00000      4.05214      1.19578     15.58929   #    H7   0.18530000   0.05070000   0.40565000
   16 1     3      0.00000      5.54135      8.71952     15.86599   #    H8   0.25340000   0.36970000   0.41285000
   17 1     3      0.00000      3.87282      5.85979      6.17961   #    H9   0.17710000   0.24845000   0.16080000
   18 1     3      0.00000      2.50717      2.93992      3.00334   #   H10   0.11465000   0.12465000   0.07815000
   19 1     3      0.00000      9.51914      4.70057      5.98169   #   H11   0.43530000   0.19930000   0.15565000
   20 1     3      0.00000      0.07435      8.96953      6.25839   #   H12   0.00340000   0.38030000   0.16285000
   21 1     3      0.00000      7.06118      5.93291     15.78721   #   H13   0.32290000   0.25155000   0.41080000
   22 1     3      0.00000      8.42683      8.85278     12.61094   #   H14   0.38535000   0.37535000   0.32815000
   23 1     3      0.00000      1.41486      7.09213     15.58929   #   H15   0.06470000   0.30070000   0.40565000
   24 1     3      0.00000     10.85965      2.82317     15.86599   #   H16   0.49660000   0.11970000   0.41285000
   25 1     1      0.00000      1.84238     11.12052      5.54935   #    C1   0.08425000   0.47150000   0.14440000
   26 1     1      0.00000      1.47609     10.13347      3.54905   #    C2   0.06750000   0.42965000   0.09235000
   27 1     1      0.00000      2.65587      9.39760      3.67779   #    C3   0.12145000   0.39845000   0.09570000
   28 1     1      0.00000      3.33487      9.54973      4.84415   #    C4   0.15250000   0.40490000   0.12605000
   29 1     1      0.00000      4.52558      8.64169      5.18042   #    C5   0.20695000   0.36640000   0.13480000
   30 1     1      0.00000      0.57294      9.91884      2.35002   #    C6   0.02620000   0.42055000   0.06115000
   31 1     1      0.00000      6.57789     11.47312      6.03742   #    C7   0.30080000   0.48645000   0.15710000
   32 1     1      0.00000      6.85124      1.86678      5.50323   #    C8   0.31330000   0.07915000   0.14320000
   33 1     1      0.00000      5.69661      2.19580      6.19498   #    C9   0.26050000   0.09310000   0.16120000
   34 1     1      0.00000      5.03073      1.14743      6.77912   #   C10   0.23005000   0.04865000   0.17640000
   35 1     1      0.00000      3.71319      1.37267      7.51314   #   C11   0.16980000   0.05820000   0.19550000
   36 1     1      0.00000      7.69207      2.94464      4.82109   #   C12   0.35175000   0.12485000   0.12545000
   37 1     1      0.00000      7.65927      0.81605      1.54490   #   C13   0.35025000   0.03460000   0.04020000
   38 1     1      0.00000      8.99431      1.42338      1.05684   #   C14   0.41130000   0.06035000   0.02750000
   39 1     1      0.00000      9.09162      0.67218     15.15695   #   C15   0.41575000   0.02850000   0.39440000
   40 1     1      0.00000      9.45791      1.65923     13.15665   #   C16   0.43250000   0.07035000   0.34235000
   41 1     1      0.00000      8.27813      2.39510     13.28539   #   C17   0.37855000   0.10155000   0.34570000
   42 1     1      0.00000      7.59913      2.24297     14.45175   #   C18   0.34750000   0.09510000   0.37605000
   43 1     1      0.00000      6.40842      3.15101     14.78802   #   C19   0.29305000   0.13360000   0.38480000
   44 1     1      0.00000     10.36106      1.87386     11.95762   #   C20   0.47380000   0.07945000   0.31115000
   45 1     1      0.00000      4.35611      0.31958     15.64502   #   C21   0.19920000   0.01355000   0.40710000
   46 1     1      0.00000      4.08276      9.92592     15.11083   #   C22   0.18670000   0.42085000   0.39320000
   47 1     1      0.00000      5.23739      9.59690     15.80258   #   C23   0.23950000   0.40690000   0.41120000
   48 1     1      0.00000      5.90327     10.64527     16.38672   #   C24   0.26995000   0.45135000   0.42640000
   49 1     1      0.00000      7.22081     10.42003     17.12074   #   C25   0.33020000   0.44180000   0.44550000
   50 1     1      0.00000      3.24193      8.84806     14.42869   #   C26   0.14825000   0.37515000   0.37545000
   51 1     1      0.00000      3.27473     10.97665     11.15250   #   C27   0.14975000   0.46540000   0.29020000
   52 1     1      0.00000      1.93969     10.36932     10.66444   #   C28   0.08870000   0.43965000   0.27750000
   53 1     1      0.00000      3.62462      5.22417      5.54935   #   C29   0.16575000   0.22150000   0.14440000
   54 1     1      0.00000      3.99091      4.23712      3.54905   #   C30   0.18250000   0.17965000   0.09235000
   55 1     1      0.00000      2.81113      3.50125      3.67779   #   C31   0.12855000   0.14845000   0.09570000
   56 1     1      0.00000      2.13213      3.65338      4.84415   #   C32   0.09750000   0.15490000   0.12605000
   57 1     1      0.00000      0.94142      2.74534      5.18042   #   C33   0.04305000   0.11640000   0.13480000
   58 1     1      0.00000      4.89406      4.02249      2.35002   #   C34   0.22380000   0.17055000   0.06115000
   59 1     1      0.00000      9.82311      5.57677      6.03742   #   C35   0.44920000   0.23645000   0.15710000
   60 1     1      0.00000      9.54976      7.76313      5.50323   #   C36   0.43670000   0.32915000   0.14320000
   61 1     1      0.00000     10.70439      8.09215      6.19498   #   C37   0.48950000   0.34310000   0.16120000
   62 1     1      0.00000      0.43627      7.04378      6.77912   #   C38   0.01995000   0.29865000   0.17640000
   63 1     1      0.00000      1.75381      7.26902      7.51314   #   C39   0.08020000   0.30820000   0.19550000
   64 1     1      0.00000      8.70893      8.84099      4.82109   #   C40   0.39825000   0.37485000   0.12545000
   65 1     1      0.00000      8.74173      6.71240      1.54490   #   C41   0.39975000   0.28460000   0.04020000
   66 1     1      0.00000      7.40669      7.31973      1.05684   #   C42   0.33870000   0.31035000   0.02750000
   67 1     1      0.00000      7.30938      6.56853     15.15695   #   C43   0.33425000   0.27850000   0.39440000
   68 1     1      0.00000      6.94309      7.55558     13.15665   #   C44   0.31750000   0.32035000   0.34235000
   69 1     1      0.00000      8.12287      8.29145     13.28539   #   C45   0.37145000   0.35155000   0.34570000
   70 1     1      0.00000      8.80187      8.13932     14.45175   #   C46   0.40250000   0.34510000   0.37605000
   71 1     1      0.00000      9.99258      9.04736     14.78802   #   C47   0.45695000   0.38360000   0.38480000
   72 1     1      0.00000      6.03994      7.77021     11.95762   #   C48   0.27620000   0.32945000   0.31115000
   73 1     1      0.00000      1.11089      6.21593     15.64502   #   C49   0.05080000   0.26355000   0.40710000
   74 1     1      0.00000      1.38424      4.02957     15.11083   #   C50   0.06330000   0.17085000   0.39320000
   75 1     1      0.00000      0.22961      3.70055     15.80258   #   C51   0.01050000   0.15690000   0.41120000
   76 1     1      0.00000     10.49773      4.74892     16.38672   #   C52   0.48005000   0.20135000   0.42640000
   77 1     1      0.00000      9.18019      4.52368     17.12074   #   C53   0.41980000   0.19180000   0.44550000
   78 1     1      0.00000      2.22507      2.95171     14.42869   #   C54   0.10175000   0.12515000   0.37545000
   79 1     1      0.00000      2.19227      5.08030     11.15250   #   C55   0.10025000   0.21540000   0.29020000
   80 1     1      0.00000      3.52731      4.47297     10.66444   #   C56   0.16130000   0.18965000   0.27750000
   81 1     4      0.00000      2.94999     10.41885      5.79530   #    N1   0.13490000   0.44175000   0.15080000
   82 1     4      0.00000      1.06169     10.98844      4.47906   #    N2   0.04855000   0.46590000   0.11655000
   83 1     4      0.00000      5.45825     11.68421      6.74838   #    N3   0.24960000   0.49540000   0.17560000
   84 1     4      0.00000      7.29188      0.60614      5.40524   #    N4   0.33345000   0.02570000   0.14065000
   85 1     4      0.00000      7.98401      1.37385     15.40290   #    N5   0.36510000   0.05825000   0.40080000
   86 1     4      0.00000      9.87231      0.80426     14.08666   #    N6   0.45145000   0.03410000   0.36655000
   87 1     4      0.00000      5.47575      0.10849     16.35598   #    N7   0.25040000   0.00460000   0.42560000
   88 1     4      0.00000      3.64212     11.18656     15.01284   #    N8   0.16655000   0.47430000   0.39065000
   89 1     4      0.00000      2.51701      4.52250      5.79530   #    N9   0.11510000   0.19175000   0.15080000
   90 1     4      0.00000      4.40531      5.09209      4.47906   #   N10   0.20145000   0.21590000   0.11655000
   91 1     4      0.00000      0.00875      5.78786      6.74838   #   N11   0.00040000   0.24540000   0.17560000
   92 1     4      0.00000      9.10912      6.50249      5.40524   #   N12   0.41655000   0.27570000   0.14065000
   93 1     4      0.00000      8.41699      7.27020     15.40290   #   N13   0.38490000   0.30825000   0.40080000
   94 1     4      0.00000      6.52869      6.70061     14.08666   #   N14   0.29855000   0.28410000   0.36655000
   95 1     4      0.00000     10.92525      6.00484     16.35598   #   N15   0.49960000   0.25460000   0.42560000
   96 1     4      0.00000      1.82488      5.29021     15.01284   #   N16   0.08345000   0.22430000   0.39065000
   97 1     6      0.00000      4.96185      8.73249      6.36792   #    O1   0.22690000   0.37025000   0.16570000
   98 1     6      0.00000      4.92795      7.86927      4.29844   #    O2   0.22535000   0.33365000   0.11185000
   99 1     6      0.00000     10.43213     10.59574      2.34233   #    O3   0.47705000   0.44925000   0.06095000
  100 1     5      0.00000      0.94798      9.10396      1.52377   #    O4   0.04335000   0.38600000   0.03965000
  101 1     6      0.00000      3.22990      0.41746      8.17415   #    O5   0.14770000   0.01770000   0.21270000
  102 1     6      0.00000      3.18726      2.50359      7.36519   #    O6   0.14575000   0.10615000   0.19165000
  103 1     6      0.00000      8.74939      2.56609      4.26577   #    O7   0.40010000   0.10880000   0.11100000
  104 1     6      0.00000      7.27986      4.11329      4.89795   #    O8   0.33290000   0.17440000   0.12745000
  105 1     6      0.00000      6.67739      0.97290      0.81280   #    O9   0.30535000   0.04125000   0.02115000
  106 1     6      0.00000      7.70519      0.17807      2.63633   #   O10   0.35235000   0.00755000   0.06860000
  107 1     6      0.00000      9.04132      1.81136     19.09030   #   O11   0.41345000   0.07680000   0.49675000
  108 1     6      0.00000      9.94010      1.47291      1.92728   #   O12   0.45455000   0.06245000   0.05015000
  109 1     6      0.00000      5.97215      3.06021     15.97552   #   O13   0.27310000   0.12975000   0.41570000
  110 1     6      0.00000      6.00605      3.92343     13.90604   #   O14   0.27465000   0.16635000   0.36185000
  111 1     6      0.00000      0.50187      1.19696     11.94993   #   O15   0.02295000   0.05075000   0.31095000
  112 1     5      0.00000      9.98602      2.68874     11.13137   #   O16   0.45665000   0.11400000   0.28965000
  113 1     6      0.00000      7.70410     11.37524     17.78175   #   O17   0.35230000   0.48230000   0.46270000
  114 1     6      0.00000      7.74674      9.28911     16.97279   #   O18   0.35425000   0.39385000   0.44165000
  115 1     6      0.00000      2.18461      9.22661     13.87337   #   O19   0.09990000   0.39120000   0.36100000
  116 1     6      0.00000      3.65414      7.67941     14.50555   #   O20   0.16710000   0.32560000   0.37745000
  117 1     6      0.00000      4.25661     10.81980     10.42040   #   O21   0.19465000   0.45875000   0.27115000
  118 1     6      0.00000      3.22881     11.61463     12.24393   #   O22   0.14765000   0.49245000   0.31860000
  119 1     6      0.00000      1.89268      9.98134      9.48270   #   O23   0.08655000   0.42320000   0.24675000
  120 1     6      0.00000      0.99390     10.31979     11.53488   #   O24   0.04545000   0.43755000   0.30015000
  121 1     6      0.00000      0.50515      2.83614      6.36792   #   O25   0.02310000   0.12025000   0.16570000
  122 1     6      0.00000      0.53905      1.97292      4.29844   #   O26   0.02465000   0.08365000   0.11185000
  123 1     6      0.00000      5.96887      4.69939      2.34233   #   O27   0.27295000   0.19925000   0.06095000
  124 1     5      0.00000      4.51902      3.20761      1.52377   #   O28   0.20665000   0.13600000   0.03965000
  125 1     6      0.00000      2.23710      6.31381      8.17415   #   O29   0.10230000   0.26770000   0.21270000
  126 1     6      0.00000      2.27974      8.39994      7.36519   #   O30   0.10425000   0.35615000   0.19165000
  127 1     6      0.00000      7.65161      8.46244      4.26577   #   O31   0.34990000   0.35880000   0.11100000
  128 1     6      0.00000      9.12114     10.00964      4.89795   #   O32   0.41710000   0.42440000   0.12745000
  129 1     6      0.00000      9.72361      6.86925      0.81280   #   O33   0.44465000   0.29125000   0.02115000
  130 1     6      0.00000      8.69581      6.07442      2.63633   #   O34   0.39765000   0.25755000   0.06860000
  131 1     6      0.00000      7.35968      7.70771     19.09030   #   O35   0.33655000   0.32680000   0.49675000
  132 1     6      0.00000      6.46090      7.36926      1.92728   #   O36   0.29545000   0.31245000   0.05015000
  133 1     6      0.00000     10.42885      8.95656     15.97552   #   O37   0.47690000   0.37975000   0.41570000
  134 1     6      0.00000     10.39495      9.81978     13.90604   #   O38   0.47535000   0.41635000   0.36185000
  135 1     6      0.00000      4.96513      7.09331     11.94993   #   O39   0.22705000   0.30075000   0.31095000
  136 1     5      0.00000      6.41498      8.58509     11.13137   #   O40   0.29335000   0.36400000   0.28965000
  137 1     6      0.00000      8.69690      5.47889     17.78175   #   O41   0.39770000   0.23230000   0.46270000
  138 1     6      0.00000      8.65426      3.39276     16.97279   #   O42   0.39575000   0.14385000   0.44165000
  139 1     6      0.00000      3.28239      3.33026     13.87337   #   O43   0.15010000   0.14120000   0.36100000
  140 1     6      0.00000      1.81286      1.78306     14.50555   #   O44   0.08290000   0.07560000   0.37745000
  141 1     6      0.00000      1.21039      4.92345     10.42040   #   O45   0.05535000   0.20875000   0.27115000
  142 1     6      0.00000      2.23819      5.71828     12.24393   #   O46   0.10235000   0.24245000   0.31860000
  143 1     6      0.00000      3.57432      4.08499      9.48270   #   O47   0.16345000   0.17320000   0.24675000
  144 1     6      0.00000      4.47310      4.42344     11.53488   #   O48   0.20455000   0.18755000   0.30015000
  145 1     2      0.00000      3.95920      9.93842     27.39780   #   Gd1   0.18105000   0.42138000   0.71292000
  146 1     2      0.00000      9.63132      0.34718     23.27672   #   Gd2   0.44043000   0.01472000   0.60568500
  147 1     2      0.00000      6.97480      1.85428     37.00540   #   Gd3   0.31895000   0.07862000   0.96292000
  148 1     2      0.00000      1.30268     11.44552     32.88432   #   Gd4   0.05957000   0.48528000   0.85568500
  149 1     2      0.00000      1.50780      4.04207     27.39780   #   Gd5   0.06895000   0.17138000   0.71292000
  150 1     2      0.00000      6.76968      6.24353     23.27672   #   Gd6   0.30957000   0.26472000   0.60568500
  151 1     2      0.00000      9.42620      7.75063     37.00540   #   Gd7   0.43105000   0.32862000   0.96292000
  152 1     2      0.00000      4.16432      5.54917     32.88432   #   Gd8   0.19043000   0.23528000   0.85568500
  153 1     3      0.00000      1.59418     11.75614     25.39481   #    H1   0.07290000   0.49845000   0.66080000
  154 1     3      0.00000      2.95983      8.83627     22.21854   #    H2   0.13535000   0.37465000   0.57815000
  155 1     3      0.00000      6.88186     10.59692     25.19689   #    H3   0.31470000   0.44930000   0.65565000
  156 1     3      0.00000      5.39265      3.07318     25.47359   #    H4   0.24660000   0.13030000   0.66285000
  157 1     3      0.00000      9.33982      0.03656     35.00241   #    H5   0.42710000   0.00155000   0.91080000
  158 1     3      0.00000      7.97417      2.95643     31.82614   #    H6   0.36465000   0.12535000   0.82815000
  159 1     3      0.00000      4.05214      1.19578     34.80449   #    H7   0.18530000   0.05070000   0.90565000
  160 1     3      0.00000      5.54135      8.71952     35.08119   #    H8   0.25340000   0.36970000   0.91285000
  161 1     3      0.00000      3.87282      5.85979     25.39481   #    H9   0.17710000   0.24845000   0.66080000
  162 1     3      0.00000      2.50717      2.93992     22.21854   #   H10   0.11465000   0.12465000   0.57815000
  163 1     3      0.00000      9.51914      4.70057     25.19689   #   H11   0.43530000   0.19930000   0.65565000
  164 1     3      0.00000      0.07435      8.96953     25.47359   #   H12   0.00340000   0.38030000   0.66285000
  165 1     3      0.00000      7.06118      5.93291     35.00241   #   H13   0.32290000   0.25155000   0.91080000
  166 1     3      0.00000      8.42683      8.85278     31.82614   #   H14   0.38535000   0.37535000   0.82815000
  167 1     3      0.00000      1.41486      7.09213     34.80449   #   H15   0.06470000   0.30070000   0.90565000
  168 1     3      0.00000     10.85965      2.82317     35.08119   #   H16   0.49660000   0.11970000   0.91285000
  169 1     1      0.00000      1.84238     11.12052     24.76455   #    C1   0.08425000   0.47150000   0.64440000
  170 1     1      0.00000      1.47609     10.13347     22.76425   #    C2   0.06750000   0.42965000   0.59235000
  171 1     1      0.00000      2.65587      9.39760     22.89299   #    C3   0.12145000   0.39845000   0.59570000
  172 1     1      0.00000      3.33487      9.54973     24.05935   #    C4   0.15250000   0.40490000   0.62605000
  173 1     1      0.00000      4.52558      8.64169     24.39562   #    C5   0.20695000   0.36640000   0.63480000
  174 1     1      0.00000      0.57294      9.91884     21.56522   #    C6   0.02620000   0.42055000   0.56115000
  175 1     1      0.00000      6.57789     11.47312     25.25262   #    C7   0.30080000   0.48645000   0.65710000
  176 1     1      0.00000      6.85124      1.86678     24.71843   #    C8   0.31330000   0.07915000   0.64320000
  177 1     1      0.00000      5.69661      2.19580     25.41018   #    C9   0.26050000   0.09310000   0.66120000
  178 1     1      0.00000      5.03073      1.14743     25.99432   #   C10   0.23005000   0.04865000   0.67640000
  179 1     1      0.00000      3.71319      1.37267     26.72834   #   C11   0.16980000   0.05820000   0.69550000
  180 1     1      0.00000      7.69207      2.94464     24.03629   #   C12   0.35175000   0.12485000   0.62545000
  181 1     1      0.00000      7.65927      0.81605     20.76010   #   C13   0.35025000   0.03460000   0.54020000
  182 1     1      0.00000      8.99431      1.42338     20.27204   #   C14   0.41130000   0.06035000   0.52750000
  183 1     1      0.00000      9.09162      0.67218     34.37215   #   C15   0.41575000   0.02850000   0.89440000
  184 1     1      0.00000      9.45791      1.65923     32.37185   #   C16   0.43250000   0.07035000   0.84235000
  185 1     1      0.00000      8.27813      2.39510     32.50059   #   C17   0.37855000   0.10155000   0.84570000
  186 1     1      0.00000      7.59913      2.24297     33.66695   #   C18   0.34750000   0.09510000   0.87605000
  187 1     1      0.00000      6.40842      3.15101     34.00322   #   C19   0.29305000   0.13360000   0.88480000
  188 1     1      0.00000     10.36106      1.87386     31.17282   #   C20   0.47380000   0.07945000   0.81115000
  189 1     1      0.00000      4.35611      0.31958     34.86022   #   C21   0.19920000   0.01355000   0.90710000
  190 1     1      0.00000      4.08276      9.92592     34.32603   #   C22   0.18670000   0.42085000   0.89320000
  191 1     1      0.00000      5.23739      9.59690     35.01778   #   C23   0.23950000   0.40690000   0.91120000
  192 1     1      0.00000      5.90327     10.64527     35.60192   #   C24   0.26995000   0.45135000   0.92640000
  193 1     1      0.00000      7.22081     10.42003     36.33594   #   C25   0.33020000   0.44180000   0.94550000
  194 1     1      0.00000      3.24193      8.84806     33.64389   #   C26   0.14825000   0.37515000   0.87545000
  195 1     1      0.00000      3.27473     10.97665     30.36770   #   C27   0.14975000   0.46540000   0.79020000
  196 1     1      0.00000      1.93969     10.36932     29.87964   #   C28   0.08870000   0.43965000   0.77750000
  197 1     1      0.00000      3.62462      5.22417     24.76455   #   C29   0.16575000   0.22150000   0.64440000
  198 1     1      0.00000      3.99091      4.23712     22.76425   #   C30   0.18250000   0.17965000   0.59235000
  199 1     1      0.00000      2.81113      3.50125     22.89299   #   C31   0.12855000   0.14845000   0.59570000
  200 1     1      0.00000      2.13213      3.65338     24.05935   #   C32   0.09750000   0.15490000   0.62605000
  201 1     1      0.00000      0.94142      2.74534     24.39562   #   C33   0.04305000   0.11640000   0.63480000
  202 1     1      0.00000      4.89406      4.02249     21.56522   #   C34   0.22380000   0.17055000   0.56115000
  203 1     1      0.00000      9.82311      5.57677     25.25262   #   C35   0.44920000   0.23645000   0.65710000
  204 1     1      0.00000      9.54976      7.76313     24.71843   #   C36   0.43670000   0.32915000   0.64320000
  205 1     1      0.00000     10.70439      8.09215     25.41018   #   C37   0.48950000   0.34310000   0.66120000
  206 1     1      0.00000      0.43627      7.04378     25.99432   #   C38   0.01995000   0.29865000   0.67640000
  207 1     1      0.00000      1.75381      7.26902     26.72834   #   C39   0.08020000   0.30820000   0.69550000
  208 1     1      0.00000      8.70893      8.84099     24.03629   #   C40   0.39825000   0.37485000   0.62545000
  209 1     1      0.00000      8.74173      6.71240     20.76010   #   C41   0.39975000   0.28460000   0.54020000
  210 1     1      0.00000      7.40669      7.31973     20.27204   #   C42   0.33870000   0.31035000   0.52750000
  211 1     1      0.00000      7.30938      6.56853     34.37215   #   C43   0.33425000   0.27850000   0.89440000
  212 1     1      0.00000      6.94309      7.55558     32.37185   #   C44   0.31750000   0.32035000   0.84235000
  213 1     1      0.00000      8.12287      8.29145     32.50059   #   C45   0.37145000   0.35155000   0.84570000
  214 1     1      0.00000      8.80187      8.13932     33.66695   #   C46   0.40250000   0.34510000   0.87605000
  215 1     1      0.00000      9.99258      9.04736     34.00322   #   C47   0.45695000   0.38360000   0.88480000
  216 1     1      0.00000      6.03994      7.77021     31.17282   #   C48   0.27620000   0.32945000   0.81115000
  217 1     1      0.00000      1.11089      6.21593     34.86022   #   C49   0.05080000   0.26355000   0.90710000
  218 1     1      0.00000      1.38424      4.02957     34.32603   #   C50   0.06330000   0.17085000   0.89320000
  219 1     1      0.00000      0.22961      3.70055     35.01778   #   C51   0.01050000   0.15690000   0.91120000
  220 1     1      0.00000     10.49773      4.74892     35.60192   #   C52   0.48005000   0.20135000   0.92640000
  221 1     1      0.00000      9.18019      4.52368     36.33594   #   C53   0.41980000   0.19180000   0.94550000
  222 1     1      0.00000      2.22507      2.95171     33.64389   #   C54   0.10175000   0.12515000   0.87545000
  223 1     1      0.00000      2.19227      5.08030     30.36770   #   C55   0.10025000   0.21540000   0.79020000
  224 1     1      0.00000      3.52731      4.47297     29.87964   #   C56   0.16130000   0.18965000   0.77750000
  225 1     4      0.00000      2.94999     10.41885     25.01050   #    N1   0.13490000   0.44175000   0.65080000
  226 1     4      0.00000      1.06169     10.98844     23.69426   #    N2   0.04855000   0.46590000   0.61655000
  227 1     4      0.00000      5.45825     11.68421     25.96358   #    N3   0.24960000   0.49540000   0.67560000
  228 1     4      0.00000      7.29188      0.60614     24.62044   #    N4   0.33345000   0.02570000   0.64065000
  229 1     4      0.00000      7.98401      1.37385     34.61810   #    N5   0.36510000   0.05825000   0.90080000
  230 1     4      0.00000      9.87231      0.80426     33.30186   #    N6   0.45145000   0.03410000   0.86655000
  231 1     4      0.00000      5.47575      0.10849     35.57118   #    N7   0.25040000   0.00460000   0.92560000
  232 1     4      0.00000      3.64212     11.18656     34.22804   #    N8   0.16655000   0.47430000   0.89065000
  233 1     4      0.00000      2.51701      4.52250     25.01050   #    N9   0.11510000   0.19175000   0.65080000