Created by Ryther's code on 2025-08-05 18:36:57.806149, modified by xyan11@uic.edu. 

    536 atoms
    608 bonds
    1080 angles
    1200 dihedrals
    216 impropers

    11 atom types
    17 bond types
    30 angle types
    8 dihedral types
    2 improper types

0.00000000 33.55135108 xlo xhi
0.00000000 20.59331732 ylo yhi
0.00000000 20.53975123 zlo zhi
-0.31354703 -0.14911714 1.58909651 xy xz yz 

Masses 

    1    12.0107  #   C
    2    12.0107  #   C
    3    1.00794  #   H
    4    14.0067  #   N
    5    14.0067  #   N
    6    15.9994  #   O
    7    15.9994  #   O
    8    15.9994  #   O
    9     32.065  #   S
   10      65.38  #  Zn
   11      65.38  #  Zn

Pair Coeffs

    1       0.10500      3.43085  #  C_3 C_3
    2       0.10500      3.43085  #  C_R C_R
    3       0.04400      2.57113  #  H_ H_
    4       0.06900      3.26069  #  N_2 N_2
    5       0.06900      3.26069  #  N_3 N_3
    6       0.06000      3.11815  #  O_1 O_1
    7       0.06000      3.11815  #  O_2_M O_2_M
    8       0.06000      3.11815  #  O_3 O_3
    9       0.27400      3.59478  #  S_3 S_3
    10      0.06000      2.58361  #  Zn6f3 Zn6f3
    11      0.04000      2.67270  #  Zn8f4 Zn8f4

Bond Coeffs

    1      18.86555      2.24262  #  H_ Zn8f4 bond order=0.5
    2      43.57940      2.59350  #  N_2 Zn8f4 bond order=0.5
    3      43.32822      2.51269  #  O_2_M Zn8f4 bond order=0.5
    4      54.94924      2.40433  #  O_2_M Zn6f3 bond order=0.5
    5      55.07699      2.48452  #  N_2 Zn6f3 bond order=0.5
    6     357.44038      1.08142  #  C_R H_ bond order=1.0
    7     527.90376      1.04442  #  H_ N_3 bond order=1.0
    8     331.06939      1.10940  #  C_3 H_ bond order=1.0
    9     931.53598      1.20133  #  C_R N_2 bond order=3.0
    10    462.65505      1.37926  #  C_R C_R bond order=1.5
    11    301.29678      1.78592  #  C_R S_3 bond order=1.0
    12    391.66951      1.45800  #  C_R C_R bond order=1.0
    13    560.26893      1.42319  #  C_R N_3 bond order=1.0
    14    706.67500      1.27367  #  C_R O_1 bond order=1.5
    15    369.94394      1.48600  #  C_3 C_R bond order=1.0
    16    539.20166      1.39385  #  C_3 O_3 bond order=1.0
    17    714.55744      1.26901  #  C_R O_2_M bond order=1.5

Angle Coeffs

    1  fourier                 25.79329      0.34375      0.37500      0.28125  #  H_ Zn8f4 N_2
    2  fourier                 24.62448      0.34375      0.37500      0.28125  #  H_ Zn8f4 O_2_M
    3  fourier                 71.45583      0.34375      0.37500      0.28125  #  N_2 Zn8f4 O_2_M
    4  fourier                 67.80662      0.34375      0.37500      0.28125  #  O_2_M Zn8f4 O_2_M
    5  cosine/periodic         67.02484            1            4  #  O_2_M Zn6f3 O_2_M
    6  cosine/periodic         70.47472            1            4  #  N_2 Zn6f3 O_2_M
    7  cosine/periodic        179.74893           -1            3  #  C_R C_R N_2
    8  cosine/periodic        101.95051           -1            3  #  C_R C_R S_3
    9  cosine/periodic        111.29751           -1            3  #  C_R C_R C_R
    10 cosine/periodic         57.28902           -1            3  #  C_R C_R H_
    11 cosine/periodic        102.18328           -1            3  #  C_R C_R C_R
    12 cosine/periodic         95.48191           -1            3  #  C_R C_R S_3
    13 cosine/periodic        129.92907           -1            3  #  C_R C_R N_3
    14 cosine/periodic        137.04263           -1            3  #  C_R C_R O_1
    15 cosine/periodic        189.84281           -1            3  #  N_3 C_R O_1
    16 cosine/periodic         99.13715           -1            3  #  C_3 C_R C_R
    17 fourier                121.77380      0.34375      0.37500      0.28125  #  C_R C_3 H_
    18 fourier                165.75867      0.34375      0.37500      0.28125  #  H_ C_3 O_3
    19 fourier                 75.49653      0.34375      0.37500      0.28125  #  H_ C_3 H_
    20 fourier                298.92298      0.34375      0.37500      0.28125  #  C_R C_3 O_3
    21 cosine/periodic        137.71425           -1            3  #  C_R C_R O_2_M
    22 cosine/periodic        206.77843           -1            3  #  O_2_M C_R O_2_M
    23 fourier                211.54307      0.25101      0.03669      0.25034  #  C_R S_3 C_R
    24 fourier                 38.69249      0.36401      0.41847      0.28800  #  C_R N_2 Zn8f4
    25 fourier                 48.02888      0.36401      0.41847      0.28800  #  C_R N_2 Zn6f3
    26 fourier                 97.01717      0.31751      0.31322      0.27250  #  H_ N_3 H_
    27 fourier                150.57460      0.31751      0.31322      0.27250  #  C_R N_3 H_
    28 fourier                311.60110      0.30023      0.26733      0.26675  #  C_3 O_3 C_3
    29 cosine/periodic         21.77718           -1            3  #  C_R O_2_M Zn6f3
    30 cosine/periodic         17.67091           -1            3  #  C_R O_2_M Zn8f4

Dihedral Coeffs

    1      27.96100           -1            2  #  X C_R N_2 X bond order=3.0
    2       6.73711           -1            2  #  X C_R C_R X bond order=1.5
    3       1.22984           -1            2  #  X C_R S_3 X bond order=1.0
    4       1.25000           -1            2  #  X C_R C_R X bond order=1.0
    5       0.25000           -1            6  #  X C_R N_3 X bond order=1.0
    6       0.16667           -1            6  #  X C_3 C_R X bond order=1.0
    7       0.03255            1            3  #  X C_3 O_3 X bond order=1.0
    8       6.73711           -1            2  #  X C_R O_2_M X bond order=1.5

Improper Coeffs

    1       2.00000      1.00000     -1.00000      0.00000            1  #  C_R X X X O_2 present=False
    2      16.66667      1.00000     -1.00000      0.00000            1  #  C_R X X X O_2 present=True

Atoms # a, b, c, alpha, beta, gamma: 33.5513510799, 20.5957041613, 20.6016709106, 85.5703143071, 90.4147167177, 90.8722991540 $$$atoms$$$

    1 1     11     0.00000     14.47141      5.01664      5.91397   #   Zn1   0.43466986   0.22138688   0.28792815
    2 1     10     0.00000      0.62573      5.06236      5.93076   #   Zn2   0.02202218   0.22354395   0.28874528
    3 1     3      0.00000     11.30841      7.54573      8.30605   #    H1   0.34197762   0.33521135   0.40438891
    4 1     3      0.00000      8.97129      8.41181      8.91434   #    H2   0.27282311   0.37498256   0.43400419
    5 1     3      0.00000      6.03953      5.57297      6.40861   #    H3   0.18369936   0.24654391   0.31201024
    6 1     3      0.00000      2.82117      8.03917      7.82858   #    H4   0.08915232   0.36096632   0.38114292
    7 1     3      0.00000      4.44762      9.57221      8.87482   #    H5   0.13851432   0.43147964   0.43208045
    8 1     3      0.00000      6.85246      9.14953      8.70152   #    H6   0.20996738   0.41160533   0.42364279
    9 1     3      0.00000     15.73847      2.03603      3.99027   #    H8   0.47073339   0.08387750   0.19427083
   10 1     3      0.00000     15.67920      8.03369      3.99270   #    H9   0.47168883   0.37511162   0.19438874
   11 1     3      0.00000     16.07631     10.19110      7.68534   #   H10   0.48517324   0.46600129   0.37416891
   12 1     3      0.00000     14.76417      9.09780      0.61544   #   H12   0.44428726   0.43947204   0.02996338
   13 1     3      0.00000     14.37811      8.29371      2.16754   #   H13   0.43269692   0.39459476   0.10552896
   14 1     3      0.00000     15.48084      4.71470      5.39040   #   H14   0.46452414   0.20869189   0.26243722
   15 1     3      0.00000      0.88071      5.76908      2.86649   #   H15   0.02938717   0.26937412   0.13955814
   16 1     3      0.00000      0.84254      6.23581      8.85926   #   H16   0.02954764   0.26952423   0.43132283
   17 1     3      0.00000     14.43206      3.75959      0.84199   #   H17   0.43200700   0.17940031   0.04099332
   18 1     3      0.00000      2.39436      7.14092      1.52749   #   H19   0.07488147   0.34102048   0.07436729
   19 1     3      0.00000      2.33595      7.79658      9.99898   #   H20   0.07497382   0.34103267   0.48681113
   20 1     3      0.00000      5.42646      5.36328      0.78746   #   H21   0.16431243   0.25747970   0.03833812
   21 1     3      0.00000      4.74197      6.81493      1.58642   #   H22   0.14471497   0.32496930   0.07723660
   22 1     3      0.00000      4.68390      7.46905     10.03330   #   H23   0.14481229   0.32499879   0.48848200
   23 1     2      0.00000     11.54246      5.52660      6.32965   #    C1   0.34767922   0.24458887   0.30816588
   24 1     2      0.00000     10.38918      6.19815      6.85982   #    C2   0.31370624   0.27520724   0.33397787
   25 1     2      0.00000     10.40412      7.18112      7.83602   #    C3   0.31477460   0.31927205   0.38150518
   26 1     2      0.00000      9.12605      7.65395      8.15966   #    C4   0.27695486   0.34101662   0.39726209
   27 1     2      0.00000      8.09957      7.04107      7.43448   #    C5   0.24595118   0.31397988   0.36195549
   28 1     2      0.00000      6.64369      7.31815      7.54594   #    C6   0.20270433   0.32701603   0.36738212
   29 1     2      0.00000      5.70744      6.45204      6.94730   #    C7   0.17429796   0.28720726   0.33823691
   30 1     2      0.00000      4.33331      6.70758      7.04791   #    C8   0.13347605   0.29923786   0.34313516
   31 1     2      0.00000      3.38639      5.81287      6.43494   #    C9   0.10473608   0.25809437   0.31329219
   32 1     2      0.00000      3.88146      7.83232      7.74550   #   C10   0.12064554   0.35123402   0.37709809
   33 1     2      0.00000      4.79940      8.69970      8.33940   #   C11   0.14850601   0.39112216   0.40601254
   34 1     2      0.00000      6.17081      8.44814      8.24181   #   C12   0.18924909   0.37927325   0.40126159
   35 1     2      0.00000     15.99769      1.11205      5.92240   #   C13   0.47839042   0.03175059   0.28833835
   36 1     2      0.00000     15.82290      1.09937      4.52824   #   C14   0.47292211   0.03637259   0.22046225
   37 1     2      0.00000     15.58403     10.18383      3.82236   #   C15   0.46979729   0.48016107   0.18609560
   38 1     2      0.00000     15.69963      8.97363      4.52776   #   C16   0.47282134   0.41874399   0.22043891
   39 1     2      0.00000     15.87525      8.96695      5.92234   #   C17   0.47830542   0.41318064   0.28833539
   40 1     2      0.00000     15.94151     10.18909      6.61084   #   C18   0.48095975   0.46994031   0.32185597
   41 1     2      0.00000     15.40232     10.19726      2.34969   #   C19   0.46412053   0.48634559   0.11439706
   42 1     2      0.00000     15.96370      4.73582      2.00629   #   C20   0.47831171   0.22243159   0.09767827
   43 1     2      0.00000      0.40501      5.43453      1.95236   #   C21   0.01489160   0.25656272   0.09505300
   44 1     2      0.00000      1.01873      5.70734      0.72129   #   C22   0.03308409   0.27443531   0.03511693
   45 1     2      0.00000      0.35117      6.04394      9.80577   #   C23   0.01498678   0.25665137   0.47740450
   46 1     2      0.00000     15.90924      5.34318      9.83845   #   C24   0.47838415   0.22249964   0.47899550
   47 1     2      0.00000     15.37053      4.29916      0.80823   #   C25   0.46021708   0.20572858   0.03934974
   48 1     1      0.00000      2.33994      6.42130      0.67794   #   C26   0.07277908   0.30926775   0.03300643
   49 1     1      0.00000      4.62267      6.12495      0.72151   #   C27   0.14068940   0.29471342   0.03512756
   50 1     2      0.00000     15.92034      5.17509      8.35800   #   C28   0.47837014   0.21989947   0.40691838
   51 1     2      0.00000     15.95251      4.90392      3.48673   #   C29   0.47832285   0.22503220   0.16975512
   52 1     2      0.00000     15.89869      7.47809      5.86921   #   C30   0.47831895   0.34108173   0.28574872
   53 1     2      0.00000     15.97415      2.60091      5.97552   #   C31   0.47837401   0.10384916   0.29092482
   54 1     9      0.00000      8.80395      5.90911      6.39607   #    S1   0.26624338   0.26291382   0.31139955
   55 1     4      0.00000     12.47178      4.98544      5.90241   #    N1   0.37505439   0.21991523   0.28736525
   56 1     4      0.00000      2.62536      5.09366      5.94221   #    N2   0.08163765   0.22502090   0.28930285
   57 1     5      0.00000     14.82572      9.08624      1.65775   #    N3   0.44630522   0.43499487   0.08070952
   58 1     6      0.00000     15.90476      0.91632      1.68767   #    O1   0.47476406   0.03815555   0.08216617
   59 1     8      0.00000      3.37642      5.46701      0.76093   #    O2   0.10325336   0.26261643   0.03704656
   60 1     7      0.00000      0.28499      4.97762      3.98995   #    O3   0.01147634   0.22672075   0.19425486
   61 1     7      0.00000      0.26029      5.13608      7.86752   #    O4   0.01151504   0.21984760   0.38303863
   62 1     7      0.00000      0.24280      6.99577      5.85780   #    O5   0.01147326   0.31770379   0.28519327
   63 1     7      0.00000      0.30249      3.11792      5.99967   #    O6   0.01151809   0.12886456   0.29210018
   64 1     7      0.00000     14.79465      6.96107      5.84506   #    O7   0.44517391   0.31606627   0.28457325
   65 1     7      0.00000     14.81214      5.10139      7.85478   #    O8   0.44521569   0.21821085   0.38241858
   66 1     7      0.00000     14.83684      4.94293      3.97719   #    O9   0.44517700   0.22508398   0.19363403
   67 1     7      0.00000     14.85433      3.08323      5.98691   #   O10   0.44521875   0.12722779   0.29147940
   68 1     11     0.00000     14.39685      5.81118     16.18385   #   Zn1   0.43466986   0.22138688   0.78792815
   69 1     10     0.00000      0.55117      5.85690     16.20063   #   Zn2   0.02202218   0.22354395   0.78874528
   70 1     3      0.00000     11.23385      8.34028     18.57592   #    H1   0.34197762   0.33521135   0.90438891
   71 1     3      0.00000      8.89673      9.20636     19.18421   #    H2   0.27282311   0.37498256   0.93400419
   72 1     3      0.00000      5.96497      6.36752     16.67849   #    H3   0.18369936   0.24654391   0.81201024
   73 1     3      0.00000      2.74661      8.83372     18.09846   #    H4   0.08915232   0.36096632   0.88114292
   74 1     3      0.00000      4.37306     10.36676     19.14470   #    H5   0.13851432   0.43147964   0.93208045
   75 1     3      0.00000      6.77790      9.94408     18.97139   #    H6   0.20996738   0.41160533   0.92364279
   76 1     3      0.00000     15.66391      2.83058     14.26015   #    H8   0.47073339   0.08387750   0.69427083
   77 1     3      0.00000     15.60464      8.82824     14.26257   #    H9   0.47168883   0.37511162   0.69438874
   78 1     3      0.00000     16.00175     10.98565     17.95521   #   H10   0.48517324   0.46600129   0.87416891
   79 1     3      0.00000     14.68962      9.89235     10.88532   #   H12   0.44428726   0.43947204   0.52996338
   80 1     3      0.00000     14.30355      9.08826     12.43741   #   H13   0.43269692   0.39459476   0.60552896
   81 1     3      0.00000     15.40629      5.50924     15.66027   #   H14   0.46452414   0.20869189   0.76243722
   82 1     3      0.00000      0.80615      6.56363     13.13637   #   H15   0.02938717   0.26937412   0.63955814
   83 1     3      0.00000      0.76798      7.03036     19.12914   #   H16   0.02954764   0.26952423   0.93132283
   84 1     3      0.00000     14.35750      4.55414     11.11187   #   H17   0.43200700   0.17940031   0.54099332
   85 1     3      0.00000      2.31980      7.93547     11.79736   #   H19   0.07488147   0.34102048   0.57436729
   86 1     3      0.00000      2.26139      8.59113     20.26886   #   H20   0.07497382   0.34103267   0.98681113
   87 1     3      0.00000      5.35190      6.15783     11.05733   #   H21   0.16431243   0.25747970   0.53833812
   88 1     3      0.00000      4.66741      7.60948     11.85630   #   H22   0.14471497   0.32496930   0.57723660
   89 1     3      0.00000      4.60935      8.26360     20.30317   #   H23   0.14481229   0.32499879   0.98848200
   90 1     2      0.00000     11.46791      6.32115     16.59953   #    C1   0.34767922   0.24458887   0.80816588
   91 1     2      0.00000     10.31462      6.99270     17.12970   #    C2   0.31370624   0.27520724   0.83397787
   92 1     2      0.00000     10.32956      7.97567     18.10590   #    C3   0.31477460   0.31927205   0.88150518
   93 1     2      0.00000      9.05149      8.44850     18.42954   #    C4   0.27695486   0.34101662   0.89726209
   94 1     2      0.00000      8.02501      7.83562     17.70435   #    C5   0.24595118   0.31397988   0.86195549
   95 1     2      0.00000      6.56913      8.11270     17.81581   #    C6   0.20270433   0.32701603   0.86738212
   96 1     2      0.00000      5.63288      7.24659     17.21718   #    C7   0.17429796   0.28720726   0.83823691
   97 1     2      0.00000      4.25875      7.50212     17.31779   #    C8   0.13347605   0.29923786   0.84313516
   98 1     2      0.00000      3.31184      6.60742     16.70482   #    C9   0.10473608   0.25809437   0.81329219
   99 1     2      0.00000      3.80690      8.62687     18.01538   #   C10   0.12064554   0.35123402   0.87709809
  100 1     2      0.00000      4.72484      9.49424     18.60927   #   C11   0.14850601   0.39112216   0.90601254
  101 1     2      0.00000      6.09625      9.24269     18.51169   #   C12   0.18924909   0.37927325   0.90126159
  102 1     2      0.00000     15.92313      1.90660     16.19227   #   C13   0.47839042   0.03175059   0.78833835
  103 1     2      0.00000     15.74834      1.89392     14.79812   #   C14   0.47292211   0.03637259   0.72046225
  104 1     2      0.00000     15.50947     10.97838     14.09223   #   C15   0.46979729   0.48016107   0.68609560
  105 1     2      0.00000     15.62507      9.76817     14.79764   #   C16   0.47282134   0.41874399   0.72043891
  106 1     2      0.00000     15.80069      9.76150     16.19221   #   C17   0.47830542   0.41318064   0.78833539
  107 1     2      0.00000     15.86695     10.98364     16.88072   #   C18   0.48095975   0.46994031   0.82185597
  108 1     2      0.00000     15.32776     10.99181     12.61956   #   C19   0.46412053   0.48634559   0.61439706
  109 1     2      0.00000     15.88914      5.53037     12.27616   #   C20   0.47831171   0.22243159   0.59767827
  110 1     2      0.00000      0.33046      6.22907     12.22224   #   C21   0.01489160   0.25656272   0.59505300
  111 1     2      0.00000      0.94417      6.50189     10.99117   #   C22   0.03308409   0.27443531   0.53511693
  112 1     2      0.00000      0.27661      6.83849     20.07565   #   C23   0.01498678   0.25665137   0.97740450
  113 1     2      0.00000     15.83469      6.13772     20.10832   #   C24   0.47838415   0.22249964   0.97899550
  114 1     2      0.00000     15.29597      5.09371     11.07811   #   C25   0.46021708   0.20572858   0.53934974
  115 1     1      0.00000      2.26539      7.21585     10.94782   #   C26   0.07277908   0.30926775   0.53300643
  116 1     1      0.00000      4.54812      6.91950     10.99139   #   C27   0.14068940   0.29471342   0.53512756
  117 1     2      0.00000     15.84578      5.96964     18.62788   #   C28   0.47837014   0.21989947   0.90691838
  118 1     2      0.00000     15.87795      5.69846     13.75660   #   C29   0.47832285   0.22503220   0.66975512
  119 1     2      0.00000     15.82413      8.27263     16.13908   #   C30   0.47831895   0.34108173   0.78574872
  120 1     2      0.00000     15.89959      3.39545     16.24540   #   C31   0.47837401   0.10384916   0.79092482
  121 1     9      0.00000      8.72940      6.70366     16.66594   #    S1   0.26624338   0.26291382   0.81139955
  122 1     4      0.00000     12.39722      5.77998     16.17229   #    N1   0.37505439   0.21991523   0.78736525
  123 1     4      0.00000      2.55080      5.88821     16.21208   #    N2   0.08163765   0.22502090   0.78930285
  124 1     5      0.00000     14.75116      9.88079     11.92763   #    N3   0.44630522   0.43499487   0.58070952
  125 1     6      0.00000     15.83020      1.71087     11.95755   #    O1   0.47476406   0.03815555   0.58216617
  126 1     8      0.00000      3.30186      6.26156     11.03080   #    O2   0.10325336   0.26261643   0.53704656
  127 1     7      0.00000      0.21043      5.77217     14.25982   #    O3   0.01147634   0.22672075   0.69425486
  128 1     7      0.00000      0.18574      5.93062     18.13739   #    O4   0.01151504   0.21984760   0.88303863
  129 1     7      0.00000      0.16824      7.79032     16.12767   #    O5   0.01147326   0.31770379   0.78519327
  130 1     7      0.00000      0.22793      3.91247     16.26954   #    O6   0.01151809   0.12886456   0.79210018
  131 1     7      0.00000     14.72009      7.75562     16.11494   #    O7   0.44517391   0.31606627   0.78457325
  132 1     7      0.00000     14.73758      5.89593     18.12466   #    O8   0.44521569   0.21821085   0.88241858
  133 1     7      0.00000     14.76228      5.73748     14.24707   #    O9   0.44517700   0.22508398   0.69363403
  134 1     7      0.00000     14.77978      3.87778     16.25679   #   O10   0.44521875   0.12722779   0.79147940
  135 1     11     0.00000     14.31464     15.31329      5.91397   #   Zn1   0.43466986   0.72138688   0.28792815
  136 1     10     0.00000      0.46895     15.35901      5.93076   #   Zn2   0.02202218   0.72354395   0.28874528
  137 1     3      0.00000     11.15163     17.84239      8.30605   #    H1   0.34197762   0.83521135   0.40438891
  138 1     3      0.00000      8.81452     18.70847      8.91434   #    H2   0.27282311   0.87498256   0.43400419
  139 1     3      0.00000      5.88276     15.86963      6.40861   #    H3   0.18369936   0.74654391   0.31201024
  140 1     3      0.00000      2.66439     18.33583      7.82858   #    H4   0.08915232   0.86096632   0.38114292
  141 1     3      0.00000      4.29085     19.86887      8.87482   #    H5   0.13851432   0.93147964   0.43208045
  142 1     3      0.00000      6.69569     19.44619      8.70152   #    H6   0.20996738   0.91160533   0.42364279
  143 1     3      0.00000     15.58170     12.33269      3.99027   #    H8   0.47073339   0.58387750   0.19427083
  144 1     3      0.00000     15.52242     18.33035      3.99270   #    H9   0.47168883   0.87511162   0.19438874
  145 1     3      0.00000     15.91954     20.48776      7.68534   #   H10   0.48517324   0.96600129   0.37416891
  146 1     3      0.00000     14.60740     19.39446      0.61544   #   H12   0.44428726   0.93947204   0.02996338
  147 1     3      0.00000     14.22133     18.59037      2.16754   #   H13   0.43269692   0.89459476   0.10552896
  148 1     3      0.00000     15.32407     15.01136      5.39040   #   H14   0.46452414   0.70869189   0.26243722
  149 1     3      0.00000      0.72393     16.06574      2.86649   #   H15   0.02938717   0.76937412   0.13955814
  150 1     3      0.00000      0.68576     16.53247      8.85926   #   H16   0.02954764   0.76952423   0.43132283
  151 1     3      0.00000     14.27528     14.05625      0.84199   #   H17   0.43200700   0.67940031   0.04099332
  152 1     3      0.00000      2.23759     17.43758      1.52749   #   H19   0.07488147   0.84102048   0.07436729
  153 1     3      0.00000      2.17918     18.09324      9.99898   #   H20   0.07497382   0.84103267   0.48681113
  154 1     3      0.00000      5.26968     15.65994      0.78746   #   H21   0.16431243   0.75747970   0.03833812
  155 1     3      0.00000      4.58520     17.11159      1.58642   #   H22   0.14471497   0.82496930   0.07723660
  156 1     3      0.00000      4.52713     17.76571     10.03330   #   H23   0.14481229   0.82499879   0.48848200
  157 1     2      0.00000     11.38569     15.82326      6.32965   #    C1   0.34767922   0.74458887   0.30816588
  158 1     2      0.00000     10.23240     16.49481      6.85982   #    C2   0.31370624   0.77520724   0.33397787
  159 1     2      0.00000     10.24734     17.47778      7.83602   #    C3   0.31477460   0.81927205   0.38150518
  160 1     2      0.00000      8.96927     17.95061      8.15966   #    C4   0.27695486   0.84101662   0.39726209
  161 1     2      0.00000      7.94280     17.33773      7.43448   #    C5   0.24595118   0.81397988   0.36195549
  162 1     2      0.00000      6.48691     17.61481      7.54594   #    C6   0.20270433   0.82701603   0.36738212
  163 1     2      0.00000      5.55067     16.74870      6.94730   #    C7   0.17429796   0.78720726   0.33823691
  164 1     2      0.00000      4.17654     17.00423      7.04791   #    C8   0.13347605   0.79923786   0.34313516
  165 1     2      0.00000      3.22962     16.10953      6.43494   #    C9   0.10473608   0.75809437   0.31329219
  166 1     2      0.00000      3.72469     18.12898      7.74550   #   C10   0.12064554   0.85123402   0.37709809
  167 1     2      0.00000      4.64263     18.99635      8.33940   #   C11   0.14850601   0.89112216   0.40601254
  168 1     2      0.00000      6.01403     18.74480      8.24181   #   C12   0.18924909   0.87927325   0.40126159
  169 1     2      0.00000     15.84092     11.40871      5.92240   #   C13   0.47839042   0.53175059   0.28833835
  170 1     2      0.00000     15.66612     11.39603      4.52824   #   C14   0.47292211   0.53637259   0.22046225
  171 1     2      0.00000     15.42726     20.48049      3.82236   #   C15   0.46979729   0.98016107   0.18609560
  172 1     2      0.00000     15.54285     19.27029      4.52776   #   C16   0.47282134   0.91874399   0.22043891
  173 1     2      0.00000     15.71847     19.26361      5.92234   #   C17   0.47830542   0.91318064   0.28833539
  174 1     2      0.00000     15.78473     20.48575      6.61084   #   C18   0.48095975   0.96994031   0.32185597
  175 1     2      0.00000     15.24555     20.49392      2.34969   #   C19   0.46412053   0.98634559   0.11439706
  176 1     2      0.00000     15.80692     15.03248      2.00629   #   C20   0.47831171   0.72243159   0.09767827
  177 1     2      0.00000      0.24824     15.73118      1.95236   #   C21   0.01489160   0.75656272   0.09505300
  178 1     2      0.00000      0.86196     16.00400      0.72129   #   C22   0.03308409   0.77443531   0.03511693
  179 1     2      0.00000      0.19439     16.34060      9.80577   #   C23   0.01498678   0.75665137   0.47740450
  180 1     2      0.00000     15.75247     15.63983      9.83845   #   C24   0.47838415   0.72249964   0.47899550
  181 1     2      0.00000     15.21376     14.59582      0.80823   #   C25   0.46021708   0.70572858   0.03934974
  182 1     1      0.00000      2.18317     16.71796      0.67794   #   C26   0.07277908   0.80926775   0.03300643
  183 1     1      0.00000      4.46590     16.42161      0.72151   #   C27   0.14068940   0.79471342   0.03512756
  184 1     2      0.00000     15.76356     15.47175      8.35800   #   C28   0.47837014   0.71989947   0.40691838
  185 1     2      0.00000     15.79573     15.20058      3.48673   #   C29   0.47832285   0.72503220   0.16975512
  186 1     2      0.00000     15.74192     17.77475      5.86921   #   C30   0.47831895   0.84108173   0.28574872
  187 1     2      0.00000     15.81738     12.89756      5.97552   #   C31   0.47837401   0.60384916   0.29092482
  188 1     9      0.00000      8.64718     16.20577      6.39607   #    S1   0.26624338   0.76291382   0.31139955
  189 1     4      0.00000     12.31500     15.28209      5.90241   #    N1   0.37505439   0.71991523   0.28736525
  190 1     4      0.00000      2.46859     15.39032      5.94221   #    N2   0.08163765   0.72502090   0.28930285
  191 1     5      0.00000     14.66894     19.38290      1.65775   #    N3   0.44630522   0.93499487   0.08070952
  192 1     6      0.00000     15.74799     11.21298      1.68767   #    O1   0.47476406   0.53815555   0.08216617
  193 1     8      0.00000      3.21965     15.76367      0.76093   #    O2   0.10325336   0.76261643   0.03704656
  194 1     7      0.00000      0.12822     15.27428      3.98995   #    O3   0.01147634   0.72672075   0.19425486
  195 1     7      0.00000      0.10352     15.43274      7.86752   #    O4   0.01151504   0.71984760   0.38303863
  196 1     7      0.00000      0.08603     17.29243      5.85780   #    O5   0.01147326   0.81770379   0.28519327
  197 1     7      0.00000      0.14571     13.41458      5.99967   #    O6   0.01151809   0.62886456   0.29210018
  198 1     7      0.00000     14.63788     17.25773      5.84506   #    O7   0.44517391   0.81606627   0.28457325
  199 1     7      0.00000     14.65537     15.39804      7.85478   #    O8   0.44521569   0.71821085   0.38241858
  200 1     7      0.00000     14.68007     15.23959      3.97719   #    O9   0.44517700   0.72508398   0.19363403
  201 1     7      0.00000     14.69756     13.37989      5.98691   #   O10   0.44521875   0.62722779   0.29147940
  202 1     11     0.00000     14.24008     16.10784     16.18385   #   Zn1   0.43466986   0.72138688   0.78792815
  203 1     10     0.00000      0.39439     16.15356     16.20063   #   Zn2   0.02202218   0.72354395   0.78874528
  204 1     3      0.00000     11.07707     18.63693     18.57592   #    H1   0.34197762   0.83521135   0.90438891
  205 1     3      0.00000      8.73996     19.50302     19.18421   #    H2   0.27282311   0.87498256   0.93400419
  206 1     3      0.00000      5.80820     16.66418     16.67849   #    H3   0.18369936   0.74654391   0.81201024
  207 1     3      0.00000      2.58983     19.13037     18.09846   #    H4   0.08915232   0.86096632   0.88114292
  208 1     3      0.00000      4.21629     20.66342     19.14470   #    H5   0.13851432   0.93147964   0.93208045
  209 1     3      0.00000      6.62113     20.24074     18.97139   #    H6   0.20996738   0.91160533   0.92364279