ITEM: TIMESTEP
0
ITEM: NUMBER OF ATOMS
536
ITEM: BOX BOUNDS xy xz yz pp pp pp
-4.6266417000000004e-01 3.3551351080000003e+01 -3.1354703000000000e-01
0.0000000000000000e+00 2.2182413830000002e+01 -1.4911714000000001e-01
0.0000000000000000e+00 2.0539751230000000e+01 1.5890965100000001e+00
ITEM: ATOMS id type element x y z q
2 10 Zn 0.52628 4.13542 6.49508 0
5 3 H 5.57629 4.83896 7.20485 0
15 3 H 0.864764 7.08328 3.0603 0
28 2 C 6.56672 6.71125 7.61697 0
29 2 C 5.44643 5.90682 7.33668 0
30 2 C 4.16096 6.49205 7.25078 0
31 2 C 2.9966 5.76159 7.01054 0
43 2 C 0.686672 6.49709 2.16857 0
44 2 C 0.899343 7.06262 0.905649 0
45 2 C 0.140827 7.17561 10.0012 0
56 4 N 2.97312 4.56677 6.87094 0
60 7 O 0.899416 4.27218 4.30813 0
61 7 O 0.223586 4.07173 8.71765 0
62 7 O 0.170332 6.54396 6.34749 0
63 7 O 0.910594 1.82429 6.43098 0
27 2 C 7.92067 6.14066 7.73631 0
310 2 C 0.215542 5.17942 2.28281 0
315 2 C 0.00376627 4.39992 1.16012 0
319 2 C -0.0678431 4.6419 3.58537 0
155 3 H 2.80051 0.286366 0.37709 0
156 3 H 2.08252 0.821767 9.2891 0
1 11 Zn 14.4098 4.73324 6.15657 0
9 3 H 14.7335 1.46236 4.58022 0
14 3 H 14.2508 3.70293 8.1461 0
17 3 H 16.3879 2.68072 1.20698 0
23 2 C 11.5508 5.14669 7.01254 0
24 2 C 10.2554 5.4346 7.4228 0
25 2 C 10.0118 5.95624 8.67608 0
36 2 C 15.0403 0.506967 4.98945 0
46 2 C 16.1716 6.7241 10.0793 0
50 2 C 16.0531 5.95145 8.8664 0
53 2 C 16.2528 1.74038 6.7225 0
54 9 S 8.79042 5.34608 6.37792 0
55 4 N 11.8068 4.70542 5.9229 0
58 6 O 13.5628 0.547614 2.57129 0
64 7 O 15.1197 6.66734 5.04402 0
65 7 O 15.0764 6.13474 8.07918 0
66 7 O 15.6612 4.36594 4.00145 0
67 7 O 15.5267 2.73816 6.46711 0
3 3 H 10.7769 6.1022 9.42911 0
4 3 H 8.36175 6.85077 9.74749 0
26 2 C 8.71065 6.35697 8.84934 0
52 2 C 16.3018 7.12085 5.02297 0
42 2 C 17.2523 4.33352 2.29616 0
47 2 C 16.949 3.60655 1.14592 0
51 2 C 16.7976 3.94572 3.61125 0
270 10 Zn 17.2957 4.24168 6.55192 0
273 3 H 22.4054 4.66062 7.27886 0
283 3 H 18.1548 6.11302 3.11275 0
295 2 C 24.7772 5.87864 7.93195 0
296 2 C 23.4335 6.48309 7.81727 0
297 2 C 22.2991 5.72204 7.46992 0
298 2 C 21.0274 6.34176 7.40227 0
299 2 C 19.8438 5.65964 7.1162 0
311 2 C 17.9504 5.54733 2.21326 0
312 2 C 18.3279 6.06837 0.978183 0
324 4 N 19.7814 4.47826 6.89773 0
327 8 O 20.1909 7.38687 0.264991 0
328 7 O 17.6523 3.49233 4.42882 0
329 7 O 16.9492 5.08928 8.62258 0
330 7 O 17.2531 6.50943 5.60861 0
331 7 O 17.3403 1.91284 7.35318 0
423 3 H 18.4418 1.3323 0.440327 0
269 11 Zn 31.2156 4.28192 6.2501 0
277 3 H 32.4072 1.31963 3.37799 0
282 3 H 31.1897 2.83238 7.96478 0
285 3 H 33.2067 3.37666 1.25631 0
291 2 C 28.3711 4.76427 7.18358 0
292 2 C 27.0893 5.09325 7.60721 0
293 2 C 26.8868 5.68611 8.83507 0
304 2 C 32.6031 0.357241 3.83822 0
314 2 C 33.3369 5.82831 10.1616 0
318 2 C 33.0108 5.0322 9.01431 0
321 2 C 33.3849 1.54422 5.82425 0
322 9 S 25.5963 4.98464 6.60198 0
323 4 N 28.5954 4.24939 6.11979 0
326 6 O 31.5007 0.353712 1.22335 0
332 7 O 31.6602 6.39416 5.5623 0
333 7 O 32.0466 5.36247 8.26513 0
334 7 O 32.2901 4.67115 4.02555 0
335 7 O 32.4218 2.35911 5.81077 0
271 3 H 27.6726 5.85454 9.56177 0
272 3 H 25.2877 6.67597 9.89497 0
294 2 C 25.6004 6.12757 9.01534 0
320 2 C 32.7227 7.05397 5.74534 0
16 3 H 0.0968478 7.63776 9.02133 0
18 3 H 1.42457 8.97582 1.75778 0
21 3 H 2.87468 10.5449 0.650698 0
48 1 C 1.31939 8.49864 0.756509 0
59 8 O 2.54577 8.56466 0.0601877 0
6 3 H 3.04823 8.34835 7.35628 0
7 3 H 5.01994 9.73962 7.82579 0
8 3 H 7.25265 8.72645 8.0091 0
22 3 H 1.33428 11.2615 9.17257 0
32 2 C 4.02314 7.87756 7.42394 0
33 2 C 5.1363 8.67201 7.69304 0
34 2 C 6.39941 8.09332 7.79634 0
197 7 O 1.44174 12.0423 6.38064 0
279 3 H 0.260207 9.29541 6.79146 0
308 2 C -0.119343 9.41809 5.78266 0
437 2 C -0.0887418 10.6604 5.16434 0
455 2 C 0.283384 11.8395 5.90673 0
136 10 Zn 0.965978 14.4415 6.40246 0
194 7 O 1.17705 14.527 4.16936 0
195 7 O 0.767465 14.5289 8.64671 0
87 3 H 3.08706 10.9236 9.02239 0
116 1 C 2.21671 10.8404 9.70404 0
126 8 O 2.01734 9.47999 10.0185 0
86 3 H 0.510023 9.02362 0.198023 0
284 3 H 16.4492 8.61975 9.08232 0
313 2 C 16.4206 8.10214 10.0348 0
10 3 H 15.8796 7.49246 2.4112 0
13 3 H 14.3479 8.43801 0.613333 0
37 2 C 16.3282 9.59504 2.19205 0
38 2 C 16.2309 8.39007 2.90557 0
41 2 C 15.9341 9.66531 0.762368 0
57 5 N 15.2688 8.56189 0.133824 0
151 3 H 15.8691 14.4646 1.12708 0
192 6 O 16.1734 10.7231 0.0865638 0
201 7 O 15.9489 12.4373 5.31189 0
135 11 Zn 14.7054 14.1411 6.31255 0
148 3 H 13.829 12.2583 7.15197 0
189 4 N 12.0853 14.25 6.23289 0
199 7 O 15.7035 14.5593 8.53883 0
286 3 H 19.0105 7.90553 1.88222 0
289 3 H 20.4296 9.43102 0.70739 0
316 1 C 18.92 7.44424 0.872527 0
11 3 H 17.1165 9.46453 6.01446 0
39 2 C 16.5502 8.34048 4.27232 0
40 2 C 16.9556 9.48946 4.94196 0
143 3 H 16.7221 11.7119 2.37561 0
169 2 C 17.0205 10.6964 4.25259 0
170 2 C 16.7225 10.7527 2.88157 0
187 2 C 17.0653 11.9296 5.01083 0
274 3 H 19.9544 8.21259 7.60639 0
275 3 H 21.9448 9.52859 8.18427 0
276 3 H 24.1508 8.46035 8.33761 0
290 3 H 17.6839 11.8903 9.24537 0
300 2 C 20.9179 7.7168 7.65619 0
301 2 C 22.0423 8.46864 7.98739 0
302 2 C 23.2903 7.85703 8.07428 0
465 7 O 18.1496 12.4979 5.34464 0
184 2 C 16.8862 14.5191 8.99619 0
404 10 Zn 17.6858 14.7281 6.11963 0
463 7 O 17.8636 14.183 8.26842 0
355 3 H 19.4464 11.7631 9.53343 0
384 1 C 18.4524 11.6747 10.0168 0
354 3 H 18.2082 8.05496 0.269888 0
278 3 H 31.8135 7.68815 3.33783 0
280 3 H 30.8839 9.17405 0.18218 0
281 3 H 30.296 8.61711 1.65096 0
305 2 C 32.3486 9.76766 3.18896 0
306 2 C 32.2779 8.53057 3.83612 0
307 2 C 32.822 8.35757 5.12235 0
309 2 C 31.7922 9.95021 1.8246 0
325 5 N 31.1733 8.85644 1.13563 0
411 3 H 32.953 11.8218 3.41914 0
419 3 H 32.9774 13.6861 1.2828 0
438 2 C 32.9352 10.8372 3.87267 0
449 2 C 33.2977 14.7161 1.16605 0
460 6 O 31.9117 11.0767 1.23329 0
469 7 O 32.9457 12.7155 6.03323 0
403 11 Zn 31.468 14.3672 6.33728 0
416 3 H 30.6979 12.6078 7.49222 0
457 4 N 28.8529 14.4163 6.07181 0
139 3 H 5.99876 15.0838 7.13397 0
140 3 H 3.56504 18.6432 7.50266 0
141 3 H 5.55965 19.9358 8.12241 0
142 3 H 7.75407 18.8511 8.28468 0
149 3 H 0.966594 17.3137 2.98429 0
150 3 H 0.550948 17.7869 9.06792 0
152 3 H 1.26465 19.2663 1.67927 0
162 2 C 7.03291 16.8861 7.72124 0
163 2 C 5.89841 16.1434 7.3384 0
164 2 C 4.63108 16.7727 7.26599 0
165 2 C 3.44945 16.094 6.96413 0
166 2 C 4.52563 18.1417 7.54977 0
167 2 C 5.65184 18.8794 7.90595 0
168 2 C 6.89475 18.2575 7.99776 0
177 2 C 0.624879 16.764 2.11546 0
178 2 C 0.570397 17.3923 0.863536 0
179 2 C 0.384327 17.3765 10.058 0
182 1 C 0.969422 18.8319 0.696769 0
190 4 N 3.41004 14.926 6.68073 0
196 7 O 0.452731 16.8286 6.20191 0
413 3 H 0.020536 19.6498 6.72734 0
444 2 C 0.189715 15.4362 2.25694 0
448 2 C -0.0407489 16.0479 10.2066 0
452 2 C -0.207681 15.2337 9.03952 0
453 2 C 0.110596 14.8456 3.56537 0
220 3 H 0.0779725 19.3836 0.319862 0
221 3 H 3.51263 21.0541 9.49077 0
250 1 C 2.52698 21.0107 9.99699 0
35 2 C 15.5445 21.0535 6.13771 0
181 2 C 16.008 15.54 1.08118 0
161 2 C 8.36592 16.2586 7.86465 0
137 3 H 11.2597 16.2187 9.49962 0
138 3 H 8.92229 17.1831 9.75949 0
144 3 H 14.4247 17.8019 4.3735 0
146 3 H 12.6446 19.0666 1.52007 0
147 3 H 12.4475 18.3115 3.00608 0
157 2 C 11.8936 14.8844 7.23571 0
158 2 C 10.6327 15.3228 7.61877 0
159 2 C 10.4654 16.0333 8.78656 0
160 2 C 9.20485 16.5546 8.92474 0
171 2 C 14.3245 19.9372 4.33925 0
172 2 C 14.7264 18.7147 4.87065 0
173 2 C 15.5606 18.6473 6.00334 0
174 2 C 15.9883 19.8208 6.63444 0
175 2 C 13.5246 20.0056 3.09005 0
176 2 C 16.2612 16.2569 2.23853 0
185 2 C 16.3641 15.5582 3.4951 0
186 2 C 15.9819 17.3149 6.42395 0
188 9 S 9.13382 15.2055 6.62198 0
191 5 N 13.1414 18.8084 2.40312 0
198 7 O 15.1423 16.3837 6.28095 0
200 7 O 15.3095 15.1632 4.08891 0
445 2 C 16.5055 17.6342 2.18608 0
446 2 C 16.4746 18.3041 0.958662 0
213 3 H 14.8419 19.7374 9.41978 0
488 3 H 15.982 20.2779 0.350134 0
145 3 H 16.641 19.7745 7.49861 0
180 2 C 17.1802 15.1605 10.2563 0
407 3 H 22.7457 15.3511 6.75198 0
408 3 H 20.336 18.9339 7.02401 0
409 3 H 22.3272 20.2185 7.6679 0
410 3 H 24.5036 19.1163 7.91108 0
417 3 H 16.7519 18.1734 3.09246 0
418 3 H 18.1636 16.7925 9.23197 0
420 3 H 16.9191 20.2 1.89066 0
424 3 H 19.8349 20.0688 9.40493 0
430 2 C 23.782 17.1513 7.34426 0
431 2 C 22.6513 16.4148 6.9357 0
432 2 C 21.3908 17.0533 6.82852 0
433 2 C 20.2042 16.3771 6.53801 0
434 2 C 21.2918 18.4261 7.09341 0
435 2 C 22.4162 19.1592 7.46381 0
436 2 C 23.6491 18.5271 7.60115 0
447 2 C 17.8687 16.383 10.1916 0
450 1 C 16.8187 19.7567 0.874014 0
458 4 N 20.1577 15.2187 6.21794 0
461 8 O 18.0553 19.861 0.199786 0
462 7 O 17.5123 15.414 4.00771 0
464 7 O 17.1875 17.0499 6.72302 0
489 3 H 21.4776 19.7217 10.051 0
303 2 C 32.8808 20.8988 5.11258 0
429 2 C 25.1031 16.5119 7.54172 0
405 3 H 27.9446 16.47 9.2667 0
406 3 H 25.6141 17.4684 9.43485 0
412 3 H 31.8131 17.6357 3.36231 0
414 3 H 30.4237 18.8788 0.264502 0
415 3 H 30.0056 18.2764 1.77344 0
425 2 C 28.6322 15.0808 7.0501 0
426 2 C 27.3645 15.5408 7.38553 0
427 2 C 27.1706 16.2789 8.53287 0
428 2 C 25.9132 16.8192 8.62152 0
439 2 C 31.9153 19.7772 3.1798 0
440 2 C 32.1274 18.5593 3.83265 0
441 2 C 32.7463 18.5154 5.09669 0
442 2 C 33.1415 19.6832 5.73215 0
443 2 C 31.277 19.8316 1.84102 0
454 2 C 32.8827 17.2314 5.74817 0
456 9 S 25.8947 15.421 6.34685 0
459 5 N 30.8068 18.6359 1.2068 0
466 7 O 31.8692 16.4787 5.7272 0
467 7 O 32.2743 15.3341 8.36947 0
468 7 O 32.5231 14.7943 4.13177 0
69 10 Zn 1.10071 4.9558 16.6195 0
72 3 H 6.12604 5.63027 17.3249 0
96 2 C 6.0201 6.6861 17.5455 0
98 2 C 3.57027 6.62429 17.1843 0
110 2 C 0.661348 7.28793 12.3523 0
123 4 N 3.53974 5.46194 16.8779 0
127 7 O 1.28708 5.03146 14.3834 0
128 7 O 0.920148 5.05698 18.8609 0
130 7 O 1.59715 2.54543 16.6081 0
377 2 C 0.264056 5.94829 12.4929 0
381 2 C 0.102411 6.53482 20.4525 0
385 2 C -0.0670082 5.72895 19.2803 0
386 2 C 0.209501 5.35193 13.7999 0
388 2 C 0.425091 2.34743 16.167 0
97 2 C 4.74829 7.30758 17.4894 0
129 7 O 0.555896 7.33918 16.4163 0
222 3 H 2.89901 1.05612 10.907 0
223 3 H 1.57191 1.69976 19.4524 0
68 11 Zn 14.791 4.62709 16.5043 0
81 3 H 13.9742 2.76647 17.4448 0
84 3 H 16.0036 4.97034 11.3156 0
90 2 C 11.9985 5.39666 17.404 0
91 2 C 10.7469 5.85419 17.7946 0
109 2 C 16.4394 6.7302 12.4602 0
114 2 C 16.1707 6.04241 11.2898 0
118 2 C 16.5132 6.00797 13.7057 0
121 9 S 9.23407 5.73435 16.8199 0
122 4 N 12.1736 4.7454 16.4088 0
125 6 O 16.229 1.08487 10.3536 0
132 7 O 15.7714 5.08451 18.7265 0
133 7 O 15.4428 5.64528 14.2917 0
134 7 O 16.0214 2.89454 15.5359 0
94 2 C 8.48931 6.80739 18.0601 0
70 3 H 11.4052 6.76896 19.6556 0
92 2 C 10.6005 6.58124 18.955 0
93 2 C 9.34514 7.11159 19.1045 0
131 7 O 15.2353 6.86227 16.4724 0
422 3 H 19.351 2.22241 19.7126 0
451 1 C 18.3541 2.14108 20.1911 0
76 3 H 16.7882 2.10212 12.6257 0
103 2 C 16.7786 1.15151 13.1475 0
113 2 C 17.233 5.6903 20.4538 0
117 2 C 16.9441 5.02412 19.2057 0
120 2 C 17.1313 2.36024 15.2582 0
337 10 Zn 17.7794 5.15464 16.3427 0
340 3 H 22.8408 5.75095 17.0057 0
351 3 H 18.1989 7.31642 19.4044 0
364 2 C 22.7481 6.81736 17.1744 0
366 2 C 20.3036 6.78235 16.7615 0
380 2 C 17.9117 6.91698 20.3701 0
391 4 N 20.254 5.61841 16.4632 0
395 7 O 17.6529 5.81941 14.2221 0
396 7 O 17.9232 4.63932 18.5049 0
398 7 O 18.2219 2.90843 15.6052 0
491 3 H 17.588 2.29936 19.4017 0
336 11 Zn 31.5921 4.85088 16.5946 0
344 3 H 33.0543 2.32477 13.6958 0
349 3 H 30.7767 3.05229 17.6542 0
352 3 H 33.1003 4.17833 11.518 0
358 2 C 28.7431 5.52873 17.3197 0
359 2 C 27.4672 5.96895 17.65 0
371 2 C 33.0263 1.34415 14.1575 0
382 2 C 33.3897 5.21755 11.4022 0
389 9 S 26.0099 5.84546 16.5946 0
390 4 N 28.978 4.87795 16.3356 0
393 6 O 31.9552 1.58531 11.5376 0
400 7 O 32.3992 5.808 18.6324 0
401 7 O 32.6321 5.29521 14.3853 0
402 7 O 33.1009 3.23365 16.3082 0
362 2 C 25.1966 6.91789 17.7908 0
338 3 H 28.0191 6.88561 19.546 0
360 2 C 27.2543 6.69338 18.8028 0
361 2 C 25.9913 7.22206 18.8825 0
399 7 O 31.9637 6.97121 15.9949 0
20 3 H 3.66468 11.5466 19.7791 0
49 1 C 2.6754 11.4986 20.2776 0
19 3 H 0.0422735 9.89579 10.5625 0
82 3 H 0.992515 7.84486 13.2205 0
83 3 H 0.701128 8.2784 19.3244 0
111 2 C 0.585807 7.91647 11.1015 0
112 2 C 0.532238 7.86284 20.312 0
115 1 C 0.948762 9.36554 10.9342 0
73 3 H 3.67052 9.16647 17.761 0
74 3 H 5.66014 10.4635 18.3883 0
75 3 H 7.86222 9.39245 18.5216 0
85 3 H 1.23909 9.80607 11.9154 0
88 3 H 2.44214 11.4393 10.6148 0
89 3 H 1.92167 11.9039 19.5656 0
95 2 C 7.15184 7.4301 17.9337 0
99 2 C 4.63484 8.67109 17.795 0
100 2 C 5.75812 9.41111 18.1556 0
101 2 C 7.0058 8.79651 18.231 0
264 7 O 0.613957 12.9245 16.7037 0
346 3 H 0.0843265 10.1575 16.9801 0
12 3 H 14.9057 10.4024 19.6813 0
287 3 H 16.2277 10.7902 10.6606 0
71 3 H 9.07765 7.74906 19.9374 0
77 3 H 14.616 8.30253 14.5214 0
79 3 H 12.9121 9.62602 11.6463 0
80 3 H 12.6719 8.8404 13.11 0
104 2 C 14.5054 10.4383 14.5323 0
105 2 C 14.8974 9.20564 15.0475 0
106 2 C 15.6926 9.11628 16.2055 0
107 2 C 16.0899 10.2748 16.8815 0
108 2 C 13.7453 10.5322 13.2605 0
119 2 C 16.0936 7.77637 16.6159 0
124 5 N 13.3829 9.34974 12.538 0
210 3 H 14.5745 12.5497 14.8308 0
236 2 C 15.6529 11.5164 16.4008 0
237 2 C 14.8763 11.5865 15.2257 0
254 2 C 16.0126 12.7829 17.0347 0
259 6 O 13.4845 11.6783 12.7575 0
268 7 O 15.2822 13.7785 16.7799 0
215 3 H 13.9803 14.7117 18.4543 0
218 3 H 16.1641 13.7337 11.5253 0
288 3 H 21.5027 10.2768 20.1765 0
317 1 C 20.4243 10.2807 20.4257 0
350 3 H 16.972 8.61825 13.3515 0
378 2 C 16.7172 8.10218 12.4341 0
379 2 C 16.7012 8.79752 11.2203 0
383 1 C 17.061 10.2489 11.169 0
394 8 O 18.2947 10.3631 10.4914 0
78 3 H 16.7093 10.2103 17.7684 0
341 3 H 20.4406 9.34473 17.2118 0
342 3 H 22.4323 10.6326 17.848 0
343 3 H 24.6037 9.52645 18.1216 0
353 3 H 17.1682 10.6658 12.1962 0
356 3 H 18.4107 12.4127 10.8482 0
357 3 H 19.8581 10.6014 19.5229 0
363 2 C 23.8784 7.55666 17.5785 0
365 2 C 21.4905 7.45814 17.0509 0
367 2 C 21.3942 8.83496 17.2947 0
368 2 C 22.5188 9.56992 17.661 0
369 2 C 23.7487 8.93608 17.8152 0
397 7 O 17.2957 7.48935 16.9077 0
532 7 O 17.0781 12.9532 17.7007 0
248 2 C 16.7335 14.6553 11.4794 0
529 7 O 17.4031 14.5427 14.7823 0
339 3 H 25.6778 7.8634 19.6967 0
345 3 H 31.8577 8.13633 13.6298 0
347 3 H 30.4023 9.37499 10.5612 0
348 3 H 30.0165 8.75594 12.072 0
372 2 C 31.9204 10.2805 13.4605 0
373 2 C 32.1635 9.06213 14.1015 0
374 2 C 32.8032 9.02034 15.355 0
375 2 C 33.1879 10.1906 15.9926 0
376 2 C 31.2619 10.3324 12.1315 0
387 2 C 32.9701 7.73384 15.9949 0
392 5 N 30.8032 9.13289 11.4963 0
478 3 H 32.067 12.4176 13.6694 0
504 2 C 32.8968 11.4063 15.3859 0
505 2 C 32.2847 11.4559 14.1212 0
522 2 C 33.0866 12.6449 16.0999 0
527 6 O 31.1444 11.45 11.5223 0
536 7 O 32.1229 13.4597 16.0907 0
483 3 H 30.9452 13.9463 18.2744 0
486 3 H 32.9225 14.4844 11.5601 0
153 3 H 0.212726 20.1293 10.4708 0
154 3 H 3.00881 21.9304 19.3441 0
183 1 C 2.12302 21.8648 20.0067 0
193 8 O 1.89683 20.5098 20.3274 0
370 2 C -0.291582 21.761 15.441 0
203 10 Zn 0.252011 15.2359 16.786 0
206 3 H 5.30635 15.8954 17.4971 0
207 3 H 2.81065 19.4301 17.5824 0
208 3 H 4.79499 20.8104 18.0337 0
209 3 H 7.01592 19.7799 18.2436 0
216 3 H 0.575328 18.2033 13.3413 0
217 3 H -0.0692517 18.7132 19.322 0
219 3 H 1.1338 20.0888 12.0271 0
228 2 C 7.66067 17.1845 18.0151 0
229 2 C 6.31246 17.7649 17.8829 0
230 2 C 5.18598 16.9664 17.6112 0
231 2 C 3.90642 17.562 17.5111 0
232 2 C 2.73639 16.8386 17.2785 0
233 2 C 3.78089 18.9514 17.6612 0
234 2 C 4.90069 19.7397 17.9205 0
235 2 C 6.15763 19.1511 18.0385 0
244 2 C 0.39461 17.6126 12.4533 0
245 2 C 0.603741 18.1717 11.1868 0
246 2 C -0.0402308 18.2513 20.3025 0
249 1 C 1.02397 19.6067 11.0287 0
257 4 N 2.70286 15.6424 17.154 0
260 8 O 2.24757 19.6679 10.327 0
261 7 O 0.616547 15.3836 14.5975 0
262 7 O -0.0334767 15.1573 19.0109 0
263 7 O -0.0837927 17.6513 16.6549 0
480 3 H 0.0606416 20.4016 17.0727 0
509 2 C -0.33477 20.5238 16.0701 0
511 2 C -0.0740454 16.2949 12.5758 0
516 2 C -0.284323 15.5084 11.4576 0
202 11 Zn 14.1382 15.7498 16.4688 0
204 3 H 10.517 17.1632 19.7076 0
205 3 H 8.10557 17.9284 20.0133 0
211 3 H 15.6079 18.4814 12.7266 0
214 3 H 14.1225 19.3677 10.8866 0
224 2 C 11.2855 16.1663 17.306 0
225 2 C 9.99137 16.4624 17.7135 0
226 2 C 9.75069 17.0064 18.9578 0
227 2 C 8.45155 17.4161 19.1244 0
238 2 C 16.0668 20.5784 12.475 0
239 2 C 15.9597 19.3859 13.2079 0
240 2 C 16.2722 19.3567 14.5769 0
242 2 C 15.6841 20.6258 11.0408 0
247 2 C 15.8419 17.7874 20.3974 0
251 2 C 15.7429 16.9926 19.1962 0
253 2 C 16.0204 18.1473 15.3435 0
255 9 S 8.52576 16.3613 16.6711 0
256 4 N 11.5393 15.7049 16.2241 0
258 5 N 15.0473 19.5026 10.4178 0
265 7 O 14.8429 17.6811 15.3479 0
266 7 O 14.7788 17.1632 18.3906 0
267 7 O 15.4072 15.3853 14.3158 0
485 3 H 16.0784 19.6689 19.3648 0
514 2 C 16.059 19.1693 20.3272 0
421 3 H 18.0278 19.1025 10.658 0
102 2 C 16.7589 21.7087 14.5201 0
212 3 H 16.8431 20.5047 16.302 0
241 2 C 16.6836 20.5136 15.2291 0
243 2 C 17.0313 15.3691 12.64 0
252 2 C 16.556 14.9782 13.9474 0
471 10 Zn 17.0208 15.288 16.9033 0
474 3 H 22.1226 15.7404 17.6285 0
475 3 H 19.671 19.2995 17.8593 0
476 3 H 21.6622 20.6315 18.3985 0
477 3 H 23.8692 19.5672 18.5789 0
484 3 H 17.9369 17.1356 13.4819 0
487 3 H 18.8132 18.9353 12.2765 0
490 3 H 20.2622 20.4605 11.1341 0
496 2 C 24.4936 16.9768 18.2411 0
497 2 C 23.1503 17.5774 18.1141 0
498 2 C 22.0158 16.8066 17.7907 0
499 2 C 20.7441 17.4238 17.7075 0
500 2 C 19.5613 16.7328 17.4403 0
501 2 C 20.6347 18.8055 17.9224 0
502 2 C 21.7595 19.5665 18.2313 0
503 2 C 23.0078 18.9576 18.3336 0
512 2 C 17.7391 16.5787 12.5753 0
513 2 C 18.1313 17.1093 11.3491 0
517 1 C 18.7309 18.4832 11.2619 0
518 1 C 20.3996 19.7313 10.3026 0
525 4 N 19.5004 15.5448 17.2608 0
528 8 O 20.0071 18.4251 10.6655 0
530 7 O 16.6473 16.1325 18.9755 0
531 7 O 16.967 17.5531 15.9539 0
473 3 H 24.9841 17.7753 20.2082 0
470 11 Zn 30.9493 15.4008 16.5632 0
472 3 H 27.3767 16.966 19.8919 0
479 3 H 31.525 18.8062 13.6658 0
481 3 H 30.5774 20.2822 10.5116 0
482 3 H 30.0048 19.7393 11.9916 0
492 2 C 28.0977 15.8849 17.5146 0
493 2 C 26.8117 16.206 17.9314 0
494 2 C 26.597 16.7946 19.1594 0
495 2 C 25.3068 17.229 19.3309 0
506 2 C 32.0941 20.8742 13.4929 0
507 2 C 32.0119 19.6437 14.1507 0
508 2 C 32.5755 19.4692 15.4285 0
510 2 C 31.5182 21.0566 12.1365 0
515 2 C 33.1171 16.9148 20.4641 0
519 2 C 32.7697 16.1269 19.3173 0
520 2 C 33.1989 15.7618 13.8817 0
521 2 C 32.469 18.1683 16.0581 0
523 9 S 25.3271 16.0915 16.915 0
524 4 N 28.3294 15.3782 16.4485 0
526 5 N 30.8771 19.9663 11.4624 0
533 7 O 31.4016 17.5145 15.8803 0
534 7 O 31.8034 16.4716 18.5777 0
535 7 O 32.0087 15.7971 14.3298 0
ITEM: TIMESTEP
2500
ITEM: NUMBER OF ATOMS
536
ITEM: BOX BOUNDS xy xz yz pp pp pp
-8.8627370245812231e-01 3.2531353630574543e+01 -7.7791118754235355e-01
-2.4813816772534381e-01 2.3495338234546352e+01 -1.1283599643414370e+00
-3.4319210787971421e-01 2.0882943337879809e+01 2.6538827468211199e+00
ITEM: ATOMS id type element x y z q
2 10 Zn 1.08047 5.02981 6.41046 0
5 3 H 6.03452 5.05789 6.76191 0
15 3 H 2.69408 2.05228 3.24604 0
28 2 C 7.42483 6.4024 7.69086 0
29 2 C 6.13925 5.95089 7.36735 0
30 2 C 4.99979 6.65425 7.81878 0
31 2 C 3.70533 6.24774 7.48714 0
43 2 C 2.42178 2.30703 2.2282 0
44 2 C 3.01801 1.61348 1.16745 0
56 4 N 3.49276 5.25804 6.83123 0
60 7 O 1.54944 4.06664 4.2538 0
62 7 O 1.27217 7.10336 5.58318 0
63 7 O 0.900731 2.87158 7.28482 0
310 2 C 1.4755 3.32056 1.99199 0
59 8 O 2.78296 20.3915 0.971624 0
315 2 C 1.13734 3.6396 0.655233 0
319 2 C 0.892615 4.04042 3.1627 0
18 3 H 4.24828 0.488349 2.53674 0
48 1 C 4.03764 0.544392 1.44305 0
86 3 H 4.97891 0.829936 0.920335 0
381 2 C 0.639513 5.62805 20.8022 0
112 2 C 2.69185 1.95408 -0.153918 0
27 2 C 8.62312 5.69738 7.20735 0
1 11 Zn 14.524 5.71866 4.32642 0
9 3 H 12.8338 1.70283 6.99449 0
14 3 H 13.2142 7.03328 3.10125 0
23 2 C 11.9341 5.26039 5.38599 0
24 2 C 10.7535 5.19025 6.10596 0
25 2 C 10.7322 4.80516 7.4323 0
36 2 C 13.3669 0.826693 6.65258 0
46 2 C 14.6811 6.57395 9.07838 0
50 2 C 15.3037 6.03933 7.85215 0
53 2 C 14.9879 2.36713 5.4268 0
54 9 S 9.20422 5.87648 5.52501 0
55 4 N 11.9694 5.57916 4.22408 0
65 7 O 14.6729 6.11941 6.75521 0
67 7 O 14.185 3.25029 5.00379 0
3 3 H 11.5921 4.41291 7.96213 0
26 2 C 9.53378 5.08547 8.05014 0
313 2 C 13.3603 7.04342 8.97705 0
35 2 C 14.5161 0.997969 5.83013 0
21 3 H 3.71192 19.1605 2.3677 0
20 3 H 3.45227 18.4613 0.733988 0
49 1 C 3.72739 19.3875 1.2791 0
89 3 H 4.75802 19.6642 0.957857 0
4 3 H 9.36732 4.93814 9.10943 0
17 3 H 16.4658 4.62837 -0.293257 0
66 7 O 16.0246 5.11775 2.21474 0
42 2 C 17.9506 4.09626 1.18118 0
47 2 C 17.4139 4.13446 -0.110859 0
51 2 C 17.2109 4.67302 2.32851 0
270 10 Zn 16.9559 5.02883 5.55561 0
273 3 H 21.8439 3.80242 6.28694 0
283 3 H 19.6222 3.42683 2.38491 0
295 2 C 24.0646 2.21422 6.79867 0
296 2 C 22.6172 1.83764 6.82288 0
297 2 C 21.5935 2.77349 6.51357 0
298 2 C 20.2369 2.36111 6.48137 0
299 2 C 19.1707 3.21628 6.2052 0
311 2 C 19.1961 3.46091 1.38978 0
312 2 C 19.9122 2.88205 0.328493 0
324 4 N 19.284 4.40866 6.10349 0
328 7 O 17.7419 4.6307 3.46945 0
329 7 O 16.4431 5.49589 7.85981 0
330 7 O 17.5892 7.21617 5.43792 0
331 7 O 16.2054 2.6945 5.58732 0
286 3 H 21.611 2.47872 1.62859 0
316 1 C 21.3018 2.30711 0.572828 0
288 3 H 22.0311 20.6172 0.709743 0
409 3 H 22.2759 0.687409 3.65021 0
61 7 O 0.651839 5.9986 8.47646 0
269 11 Zn 29.9205 5.75886 5.14828 0
277 3 H 28.8891 2.17327 5.78331 0
282 3 H 28.2375 6.23495 3.79993 0
285 3 H 31.9353 4.42964 0.454264 0
291 2 C 27.3976 4.04448 6.23734 0
292 2 C 26.2702 3.32802 6.63461 0
293 2 C 26.3171 2.17714 7.4125 0
304 2 C 29.441 1.27829 5.96705 0
314 2 C 30.8785 7.63671 9.66563 0
318 2 C 31.1789 6.79947 8.47224 0
321 2 C 31.3536 2.68775 6.60773 0
322 9 S 24.617 3.78235 6.13014 0
323 4 N 27.3287 5.05378 5.57768 0
326 6 O 26.6602 0.922274 5.23806 0
332 7 O 31.0107 8.09792 4.75952 0
333 7 O 30.4098 6.84182 7.45397 0
334 7 O 31.2588 4.60556 3.10281 0
335 7 O 30.7833 3.68171 6.06321 0
155 3 H 27.7652 0.48375 0.133893 0
303 2 C 30.7687 1.35479 6.41086 0
32 2 C 5.17109 7.81497 8.59306 0
278 3 H 3.42616 8.19237 4.9189 0
6 3 H 4.31235 8.37419 8.94763 0
7 3 H 6.58332 9.17694 9.48123 0
33 2 C 6.45533 8.27439 8.89707 0
34 2 C 7.57523 7.57288 8.44609 0
197 7 O 1.99717 14.1477 4.95227 0
308 2 C 1.02678 10.6103 4.90456 0
437 2 C 1.85424 11.7506 4.8872 0
455 2 C 1.2657 13.107 5.03141 0
280 3 H 6.93703 8.97385 4.52861 0
281 3 H 5.64624 8.67546 3.49708 0
305 2 C 3.82693 10.3047 4.84517 0
306 2 C 2.98656 9.18243 4.8897 0
307 2 C 1.58412 9.32551 4.91681 0
309 2 C 5.30395 10.1449 4.82754 0
325 5 N 5.89576 8.88272 4.49084 0
411 3 H 3.89227 12.4577 4.84856 0
438 2 C 3.25038 11.5851 4.84928 0
460 6 O 6.05755 11.1365 5.12063 0
64 7 O 15.563 7.89579 4.86369 0
284 3 H 12.8254 6.99843 8.03588 0
8 3 H 8.56122 7.94357 8.6816 0
201 7 O 15.7791 13.6673 5.20154 0
135 11 Zn 14.1655 15.1981 5.2923 0
148 3 H 12.797 13.424 5.88374 0
290 3 H 9.52406 9.89879 9.94817 0
384 1 C 10.4621 10.1031 9.38178 0
394 8 O 11.0516 8.91111 8.90264 0
355 3 H 10.1936 10.7493 8.52161 0
189 4 N 11.6942 15.2555 5.78844 0
199 7 O 15.5806 15.2354 7.68213 0
137 3 H 11.6134 16.0343 9.66098 0
157 2 C 11.7859 15.5661 6.94687 0
158 2 C 10.667 15.8707 7.69994 0
159 2 C 10.714 16.1115 9.06072 0
287 3 H 10.6584 7.11277 9.80826 0
356 3 H 11.1827 10.66 10.0214 0
52 2 C 16.7563 8.14736 5.23299 0
151 3 H 16.1654 15.022 -0.300609 0
11 3 H 16.6587 10.609 3.93207 0
10 3 H 17.5882 8.61121 7.62624 0
13 3 H 16.3316 10.8909 10.0291 0
37 2 C 17.7136 10.7383 7.67144 0
38 2 C 17.5039 9.52504 7.04542 0
41 2 C 18.097 10.7304 9.06426 0
57 5 N 17.2526 11.3884 10.0185 0
192 6 O 19.0297 9.93562 9.42781 0
39 2 C 17.1213 9.46623 5.70867 0
40 2 C 16.9795 10.643 4.96577 0
143 3 H 17.6586 12.8719 7.47102 0
169 2 C 17.1688 11.8719 5.61445 0
170 2 C 17.5256 11.9201 6.96851 0
187 2 C 16.9001 13.14 4.98504 0
465 7 O 17.8445 13.8346 4.5273 0
180 2 C 17.3537 15.6265 9.25821 0
418 3 H 19.2419 14.8189 8.57643 0
424 3 H 22.9 13.6926 11.024 0
447 2 C 18.6835 15.1931 9.42721 0
489 3 H 22.5057 12.3096 9.95076 0
475 3 H 17.6566 12.7365 17.8131 0
476 3 H 19.4225 11.1517 18.4435 0
477 3 H 21.7612 11.8029 18.3971 0
490 3 H 22.0749 12.238 11.6973 0
501 2 C 18.6931 13.0569 17.7833 0
502 2 C 19.6891 12.1568 18.1425 0
503 2 C 21.0306 12.5425 18.1158 0
518 1 C 22.139 12.9045 10.8128 0
528 8 O 20.8429 13.3981 10.5145 0
45 2 C 29.8802 8.62908 9.58108 0
16 3 H 29.3755 8.81462 8.64021 0
320 2 C 0.736801 8.12272 5.06707 0
22 3 H 26.7016 11.5635 8.87515 0
87 3 H 27.7389 13.029 8.92305 0
116 1 C 27.4494 12.1168 9.48457 0
126 8 O 28.6031 11.3254 9.68222 0
279 3 H 31.4623 10.7217 4.96341 0
419 3 H 0.804748 15.7737 0.362107 0
469 7 O 31.5482 13.228 5.33735 0
403 11 Zn 30.0646 15.2579 5.86728 0
416 3 H 28.599 13.7883 5.18681 0
457 4 N 27.4881 15.6804 5.82752 0
467 7 O 30.7058 14.9691 8.3474 0
19 3 H 27.4202 9.74558 10.3637 0
473 3 H 23.7921 12.5625 18.7288 0
472 3 H 26.0639 13.5986 18.3411 0
495 2 C 23.906 13.4791 18.1767 0
136 10 Zn 1.32395 16.4708 5.63293 0
194 7 O 1.33442 17.1853 3.33219 0
195 7 O 1.20853 15.7655 7.97357 0
139 3 H 6.14331 16.1408 7.24572 0
140 3 H 4.00821 19.514 8.88374 0
141 3 H 5.93057 20.0221 10.3342 0
150 3 H 2.45674 13.8238 9.59536 0
162 2 C 7.19914 17.2779 8.76329 0
163 2 C 6.09441 16.9876 7.9203 0
164 2 C 4.93354 17.8025 7.94158 0
165 2 C 3.78111 17.5393 7.17645 0
166 2 C 4.88929 18.8842 8.83204 0
167 2 C 5.97552 19.1725 9.66491 0
168 2 C 7.1239 18.3826 9.62863 0
190 4 N 3.76881 16.8363 6.19624 0
196 7 O 0.69334 18.7478 6.24983 0
413 3 H 0.278789 21.315 6.8165 0
452 2 C 0.354961 15.2627 8.77341 0
58 6 O 10.8572 19.259 8.49812 0
181 2 C 14.0331 18.0751 20.854 0
176 2 C 14.4912 15.8312 0.801668 0
185 2 C 15.07 15.7222 2.16247 0
200 7 O 14.2693 15.4797 3.1085 0
142 3 H 7.96322 18.665 10.2521 0
161 2 C 8.48826 16.5637 8.59893 0
423 3 H 9.38839 22.3484 20.8695 0
138 3 H 9.35892 16.8007 10.5989 0
144 3 H 12.5393 18.5243 6.86448 0
146 3 H 10.912 1.19906 7.80169 0
147 3 H 10.6165 21.7179 9.3151 0
160 2 C 9.49215 16.5075 9.56548 0
171 2 C 12.1444 20.6203 7.03667 0
172 2 C 12.8693 19.5158 6.57615 0
173 2 C 14.0182 19.675 5.76447 0
174 2 C 14.4537 20.9594 5.40818 0
175 2 C 10.9295 20.3685 7.87087 0
186 2 C 14.756 18.4541 5.35732 0
188 9 S 9.06587 16.1441 6.95313 0
191 5 N 10.1653 21.4476 8.41261 0
198 7 O 14.1159 17.3868 5.43034 0
445 2 C 13.1898 16.3469 0.69976 0
446 2 C 11.4185 19.1255 20.693 0
145 3 H 15.3327 21.0777 4.78484 0
417 3 H 12.6695 16.6647 1.59671 0
420 3 H 10.8473 17.3798 0.446047 0
450 1 C 10.0168 19.6954 20.6488 0
464 7 O 16.0024 18.4056 5.08432 0
462 7 O 16.3078 15.8992 2.41214 0
184 2 C 16.7668 15.6481 7.92223 0
404 10 Zn 16.9183 15.9863 4.79659 0
463 7 O 17.4907 16.0826 6.98889 0
407 3 H 21.6396 17.0935 5.28057 0
408 3 H 19.4859 20.3664 3.45394 0
410 3 H 23.5425 20.9007 4.72143 0
430 2 C 22.7355 18.9229 5.07031 0
431 2 C 21.6091 18.1093 4.90259 0
432 2 C 20.4213 18.6251 4.3376 0
433 2 C 19.2439 17.8852 4.31664 0
434 2 C 20.3905 19.9487 3.88224 0
435 2 C 21.5273 20.7514 3.99567 0
436 2 C 22.6896 20.2498 4.60192 0
458 4 N 19.2404 16.6977 4.48555 0
429 2 C 23.9281 18.3639 5.76041 0
213 3 H 15.9489 19.8311 0.467597 0
421 3 H 21.3897 15.3896 10.2535 0
449 2 C 31.6155 16.5995 0.324851 0
453 2 C 31.7158 16.8398 2.85439 0
468 7 O 30.8634 16.2485 3.59824 0
149 3 H 30.0296 18.7867 2.40457 0
152 3 H 28.3626 20.0135 1.3395 0
177 2 C 30.3213 18.3008 1.47944 0
178 2 C 29.6711 18.642 0.289278 0
182 1 C 28.5234 19.6247 0.307984 0
444 2 C 31.2719 17.2738 1.51556 0
405 3 H 26.0187 18.3505 8.3633 0
406 3 H 23.9048 19.5293 7.59279 0
412 3 H 28.3491 19.0375 5.55819 0
414 3 H 25.5921 20.554 3.46779 0
415 3 H 26.2298 19.2947 4.36092 0
425 2 C 27.1765 16.5373 6.61738 0
426 2 C 25.9174 17.1255 6.56257 0
427 2 C 25.4962 18.0937 7.45013 0
428 2 C 24.3709 18.7618 7.01125 0
439 2 C 28.0613 21.1459 5.67406 0
440 2 C 28.807 19.9815 5.82395 0
441 2 C 30.157 20.0237 6.22252 0
442 2 C 30.7461 21.2645 6.53209 0
443 2 C 26.7054 21.0798 5.07199 0
454 2 C 30.936 18.7642 6.20179 0
456 9 S 24.8309 16.9464 5.14321 0
459 5 N 26.4537 20.2326 3.96947 0
466 7 O 30.3175 17.6671 6.07448 0
69 10 Zn 1.25302 7.44103 16.3345 0
72 3 H 6.24287 7.65166 17.3417 0
98 2 C 3.74293 8.7588 17.3484 0
123 4 N 3.74684 7.92871 16.4747 0
127 7 O 0.969031 8.2094 14.02 0
128 7 O 1.28556 6.61056 18.7132 0
130 7 O 1.75448 5.01476 15.5255 0
385 2 C 0.380588 6.01037 19.3908 0
388 2 C 1.0007 3.97949 15.4875 0
344 3 H 3.57364 3.28407 14.8244 0
371 2 C 2.92095 2.42326 14.9009 0
393 6 O 5.70776 1.90469 14.5116 0
96 2 C 6.11754 8.48653 18.0208 0
83 3 H 2.04672 4.08983 20.2516 0
154 3 H 27.5241 4.01785 20.0765 0
370 2 C 1.55421 2.61669 15.1924 0
68 11 Zn 14.0126 6.29716 15.9894 0
81 3 H 12.9764 4.48512 16.7531 0
90 2 C 11.7329 6.76969 17.3204 0
91 2 C 10.6371 7.19175 18.0429 0
109 2 C 14.6452 7.08837 11.4659 0
114 2 C 15.3341 6.59719 10.3363 0
118 2 C 15.166 7.00016 12.8448 0
121 9 S 9.10656 7.60833 17.2383 0
122 4 N 11.6224 6.29789 16.2156 0
132 7 O 15.2464 5.97566 18.4033 0
133 7 O 14.3308 6.76533 13.767 0
94 2 C 8.50274 8.14046 18.8295 0
70 3 H 11.5438 7.33743 20.0276 0
92 2 C 10.6742 7.48248 19.3948 0
93 2 C 9.47407 8.02215 19.8355 0
71 3 H 9.32682 8.34605 20.8569 0
422 3 H 8.72309 22.327 19.1993 0
327 8 O 21.3378 0.916488 0.314003 0
289 3 H 23.4631 1.17726 0.427662 0
274 3 H 18.8921 0.676756 6.69739 0
300 2 C 19.9199 1.02172 6.73747 0
354 3 H 22.0027 2.86717 -0.089316 0
317 1 C 22.667 0.456584 0.119213 0
275 3 H 19.8783 20.1804 7.30847 0
276 3 H 22.1911 20.8731 7.40677 0
301 2 C 20.1358 21.2085 7.08824 0
302 2 C 21.4627 21.615 7.14542 0
84 3 H 16.3358 6.19909 10.4436 0
134 7 O 15.6711 4.87743 15.8523 0
76 3 H 16.7284 3.80563 18.2961 0
103 2 C 16.6672 2.87256 17.765 0
113 2 C 16.976 6.20007 20.0489 0
117 2 C 16.4438 6.32377 18.69 0
120 2 C 16.6867 4.15611 15.7133 0
337 10 Zn 16.8532 6.9658 15.5465 0
351 3 H 18.7712 5.1551 19.4311 0
380 2 C 18.225 5.58027 20.2653 0
395 7 O 16.3984 7.12673 13.1289 0
396 7 O 17.2184 6.7705 17.7939 0
398 7 O 17.7207 4.65499 15.1862 0
102 2 C 16.6816 2.85469 16.3671 0
271 3 H 27.2226 1.77294 7.85223 0
294 2 C 25.1045 1.49842 7.40312 0
272 3 H 24.2122 21.6452 7.90337 0
223 3 H 26.6414 2.51357 19.6457 0
377 2 C 31.0789 8.09848 12.064 0
386 2 C 31.4613 7.70932 13.4372 0