Created by Ryther's code on 2025-08-05 17:25:31.578770, modified by xyan11@uic.edu. 

    728 atoms
    840 bonds
    1576 angles
    1704 dihedrals
    344 impropers

    11 atom types
    22 bond types
    45 angle types
    9 dihedral types
    2 improper types

0.00000000 42.69609093 xlo xhi
0.00000000 35.13407069 ylo yhi
0.00000000 34.43626137 zlo zhi
-0.32937233 -0.45348126 2.2055597 xy xz yz 

Masses 

    1    12.0107  #   C
    2     35.453  #  Cl
    3    1.00794  #   H
    4    14.0067  #   N
    5    15.9994  #   O
    6    15.9994  #   O
    7    15.9994  #   O
    8    15.9994  #   O
    9    15.9994  #   O
   10      65.38  #  Zn
   11      65.38  #  Zn

Pair Coeffs

    1       0.10500      3.43085  #  C_R C_R
    2       0.22700      3.51638  #  Cl Cl
    3       0.04400      2.57113  #  H_ H_
    4       0.06900      3.26069  #  N_2 N_2
    5       0.06000      3.11815  #  O_1 O_1
    6       0.06000      3.11815  #  O_2_M O_2_M
    7       0.06000      3.11815  #  O_3_M O_3_M
    8       0.06000      3.11815  #  O_3_f O_3_f
    9       0.06000      3.11815  #  O_R O_R
    10      0.12400      2.46155  #  Zn4+2 Zn4+2
    11      0.06000      2.58361  #  Zn6f3 Zn6f3

Bond Coeffs

    1     104.43232      2.12294  #  O_3_f Zn4+2 bond order=0.5
    2     103.61325      2.20128  #  N_2 Zn4+2 bond order=0.5
    3     104.44141      2.12294  #  O_2_M Zn4+2 bond order=0.5
    4      48.90184      1.84943  #  H_ Zn4+2 bond order=0.5
    5      55.07699      2.48452  #  N_2 Zn6f3 bond order=0.5
    6      24.34887      2.13340  #  H_ Zn6f3 bond order=0.5
    7      53.24274      2.42975  #  O_3_M Zn6f3 bond order=0.5
    8      54.94924      2.40433  #  O_2_M Zn6f3 bond order=0.5
    9     357.44038      1.08142  #  C_R H_ bond order=1.0
    10    559.99521      0.99025  #  H_ O_3_M bond order=1.0
    11    602.38274      0.96643  #  H_ O_3_f bond order=1.0
    12    931.53598      1.20133  #  C_R N_2 bond order=3.0
    13    462.65505      1.37926  #  C_R C_R bond order=1.5
    14    391.66951      1.45800  #  C_R C_R bond order=1.0
    15    706.67500      1.27367  #  C_R O_1 bond order=1.5
    16    646.62465      1.31194  #  C_R O_R bond order=1.5
    17    545.99778      1.38804  #  C_R O_R bond order=1.0
    18    629.58965      1.24464  #  C_R C_R bond order=3.0
    19    277.92768      1.75058  #  C_R Cl bond order=1.0
    20    714.55744      1.26901  #  C_R O_2_M bond order=1.5
    21    678.02790      1.29140  #  C_R O_3_M bond order=1.5
    22    714.49531      1.26901  #  C_R O_3_f bond order=1.5

Angle Coeffs

    1  cosine/periodic        101.81334            1            4  #  N_2 Zn4+2 O_3_f
    2  cosine/periodic         97.35730            1            4  #  O_2_M Zn4+2 O_3_f
    3  cosine/periodic         36.19731            1            4  #  H_ Zn4+2 O_3_f
    4  cosine/periodic        101.82219            1            4  #  N_2 Zn4+2 O_2_M
    5  cosine/periodic         37.39156            1            4  #  H_ Zn4+2 N_2
    6  cosine/periodic         36.20045            1            4  #  H_ Zn4+2 O_2_M
    7  cosine/periodic         97.36576            1            4  #  O_2_M Zn4+2 O_2_M
    8  cosine/periodic         14.11273            1            4  #  H_ Zn4+2 H_
    9  cosine/periodic         25.39208            1            4  #  H_ Zn6f3 N_2
    10 cosine/periodic         69.42201            1            4  #  N_2 Zn6f3 O_3_M
    11 cosine/periodic         70.47472            1            4  #  N_2 Zn6f3 O_2_M
    12 cosine/periodic         23.92551            1            4  #  H_ Zn6f3 O_3_M
    13 cosine/periodic         24.38538            1            4  #  H_ Zn6f3 O_2_M
    14 cosine/periodic         65.96675            1            4  #  O_2_M Zn6f3 O_3_M
    15 cosine/periodic         67.02484            1            4  #  O_2_M Zn6f3 O_2_M
    16 cosine/periodic         25.05849            1            1  #  O_3_M H_ Zn6f3
    17 cosine/periodic         44.75218            1            1  #  O_3_f H_ Zn4+2
    18 cosine/periodic        179.74893           -1            3  #  C_R C_R N_2
    19 cosine/periodic        111.29751           -1            3  #  C_R C_R C_R
    20 cosine/periodic         57.28902           -1            3  #  C_R C_R H_
    21 cosine/periodic        102.18328           -1            3  #  C_R C_R C_R
    22 cosine/periodic        137.04263           -1            3  #  C_R C_R O_1
    23 cosine/periodic        131.74425           -1            3  #  C_R C_R O_R
    24 cosine/periodic        195.47893           -1            3  #  O_1 C_R O_R
    25 cosine/periodic        132.59925           -1            3  #  C_R C_R O_R
    26 cosine/periodic        128.87921           -1            3  #  C_R C_R C_R
    27 cosine/periodic         85.93361           -1            3  #  C_R C_R Cl
    28 cosine/periodic         91.89380           -1            3  #  C_R C_R Cl
    29 cosine/periodic        137.71425           -1            3  #  C_R C_R O_2_M
    30 cosine/periodic        206.77843           -1            3  #  O_2_M C_R O_2_M
    31 cosine/periodic        201.36299           -1            3  #  O_3_M C_R O_3_f
    32 cosine/periodic        134.57449           -1            3  #  C_R C_R O_3_M
    33 cosine/periodic        137.70227           -1            3  #  C_R C_R O_3_f
    34 fourier                 84.89470      0.36401      0.41847      0.28800  #  C_R N_2 Zn4+2
    35 fourier                 48.02888      0.36401      0.41847      0.28800  #  C_R N_2 Zn6f3
    36 fourier                295.63447      0.35263      0.39441      0.28421  #  C_R O_R C_R
    37 cosine/periodic         21.77718           -1            3  #  C_R O_2_M Zn6f3
    38 fourier                 22.33312      0.30023      0.26733      0.26675  #  H_ O_3_M Zn6f3
    39 fourier                 55.81766      0.30023      0.26733      0.26675  #  C_R O_3_M Zn6f3
    40 fourier                203.65891      0.30023      0.26733      0.26675  #  C_R O_3_M H_
    41 fourier                 39.59088      0.34375      0.37500      0.28125  #  H_ O_3_f Zn4+2
    42 fourier                 92.63549      0.34375      0.37500      0.28125  #  C_R O_3_f Zn4+2
    43 fourier                114.20321      0.34375      0.37500      0.28125  #  H_ O_3_f H_
    44 fourier                191.55689      0.34375      0.37500      0.28125  #  C_R O_3_f H_
    45 cosine/periodic         37.72922           -1            3  #  C_R O_2_M Zn4+2

Dihedral Coeffs

    1      27.96100           -1            2  #  X C_R N_2 X bond order=3.0
    2       6.73711           -1            2  #  X C_R C_R X bond order=1.5
    3       1.25000           -1            2  #  X C_R C_R X bond order=1.0
    4       6.73711           -1            2  #  X C_R O_R X bond order=1.5
    5       2.50000           -1            2  #  X C_R O_R X bond order=1.0
    6      27.96100           -1            2  #  X C_R C_R X bond order=3.0
    7       6.73711           -1            2  #  X C_R O_2_M X bond order=1.5
    8       0.31957           -1            2  #  X C_R O_3_M X bond order=1.5
    9       0.00000           -1            2  #  X C_R O_3_f X bond order=1.5

Improper Coeffs

    1       2.00000      1.00000     -1.00000      0.00000            1  #  C_R X X X O_2 present=False
    2      16.66667      1.00000     -1.00000      0.00000            1  #  C_R X X X O_2 present=True

Atoms # a, b, c, alpha, beta, gamma: 42.6960909311, 35.1356145488, 34.5097991256, 86.3287542382, 90.7529255612, 90.5371165769 $$$atoms$$$

    1 1     10     0.00000     14.31573     14.74231      2.59120   #   Zn1   0.33929348   0.41487780   0.07524638
    2 1     11     0.00000     17.24594     14.77100      2.60783   #   Zn2   0.40793408   0.41566407   0.07572906
    3 1     3      0.00000      9.91694     12.74536      0.96075   #    H1   0.23534933   0.36101219   0.02789924
    4 1     3      0.00000      7.50366     12.55645      0.56897   #    H2   0.17867028   0.35634945   0.01652232
    5 1     3      0.00000      6.85445     16.11236      2.94105   #    H3   0.16494398   0.45323497   0.08540550
    6 1     3      0.00000      9.26951     16.28833      3.32410   #    H4   0.22165944   0.45754530   0.09652893
    7 1     3      0.00000      3.21459     12.90462      2.38445   #    H5   0.07882548   0.36294973   0.06924251
    8 1     3      0.00000      0.77282     12.78508      2.56388   #    H6   0.02166243   0.35922016   0.07445288
    9 1     3      0.00000      0.52957     17.07391      2.22295   #    H7   0.01680641   0.48191220   0.06455263
   10 1     3      0.00000      2.98331     17.19377      2.01445   #    H8   0.07424133   0.48570373   0.05849783
   11 1     3      0.00000     14.75747     14.00930      1.93978   #    H9   0.34928689   0.39520232   0.05632948
   12 1     3      0.00000     14.00055     10.61788      1.43602   #   H10   0.33066573   0.29959257   0.04170080
   13 1     3      0.00000     14.03200      8.16572      1.43752   #   H11   0.33086451   0.22979550   0.04174444
   14 1     3      0.00000     17.66058      8.20051      3.75845   #   H12   0.41654146   0.22655481   0.10914212
   15 1     3      0.00000     17.64326     10.65328      3.76326   #   H13   0.41667580   0.29635766   0.10928178
   16 1     3      0.00000     18.03806      3.78098      2.64202   #   H14   0.42408353   0.10279936   0.07672211
   17 1     3      0.00000     18.06591      1.32871      2.64142   #   H15   0.42419728   0.03300322   0.07670475
   18 1     3      0.00000     13.74448      1.29268      2.55757   #   H16   0.32295083   0.03213039   0.07426966
   19 1     3      0.00000     13.73197      3.74540      2.55755   #   H17   0.32319642   0.10194071   0.07426923
   20 1     3      0.00000     16.99220     15.50413      2.61881   #   H18   0.40215523   0.43651083   0.07604804
   21 1     3      0.00000     15.24894     15.97003      1.69436   #   H19   0.36115600   0.45145672   0.04920280
   22 1     3      0.00000     16.73656     13.72098     15.95702   #   H20   0.39970261   0.36144314   0.46337835
   23 1     3      0.00000     16.65410     13.34494     13.53788   #   H21   0.39697678   0.35515011   0.39312865
   24 1     3      0.00000     14.30827     16.92745     13.05192   #   H22   0.34267772   0.45800291   0.37901680
   25 1     3      0.00000     14.39557     17.32013     15.46707   #   H23   0.34551962   0.46477675   0.44915063
   26 1     3      0.00000     17.02752     13.68751      9.36530   #   H24   0.40456958   0.37250691   0.27196041
   27 1     3      0.00000     16.93996     13.29518      6.94967   #   H25   0.40172168   0.36574388   0.20181255
   28 1     3      0.00000     14.59894     16.89446      6.46078   #   H26   0.34753829   0.46907911   0.18761554
   29 1     3      0.00000     14.68163     17.27002      8.87955   #   H27   0.35026939   0.47535918   0.25785456
   30 1     3      0.00000     14.98888     15.58500      3.22692   #   H28   0.35543164   0.43770403   0.09370700
   31 1     1      0.00000     11.17653     14.63670      2.39655   #    C1   0.26568862   0.41222683   0.06959369
   32 1     1      0.00000      9.75920     14.52969      2.16866   #    C2   0.23240231   0.40959647   0.06297602
   33 1     1      0.00000      9.25014     13.48163      1.39350   #    C3   0.22002120   0.38117928   0.04046620
   34 1     1      0.00000      7.87352     13.37661      1.17154   #    C4   0.18769037   0.37859472   0.03402066
   35 1     1      0.00000      6.98798     14.32123      1.72312   #    C5   0.16731964   0.40447539   0.05003797
   36 1     1      0.00000      7.50912     15.37038      2.50148   #    C6   0.17998499   0.43291775   0.07264076
   37 1     1      0.00000      8.88618     15.47318      2.72196   #    C7   0.21232497   0.43544172   0.07904350
   38 1     1      0.00000      5.53007     14.21485      1.49341   #    C8   0.13308255   0.40186628   0.04336745
   39 1     1      0.00000      3.27760     15.06260      2.14386   #    C9   0.08070416   0.42480968   0.06225599
   40 1     1      0.00000      2.64087     13.81834      2.31349   #   C10   0.06556783   0.38908585   0.06718177
   41 1     1      0.00000      1.24906     13.74946      2.43302   #   C11   0.03298991   0.38690750   0.07065289
   42 1     1      0.00000      0.48150     14.91981      2.39496   #   C12   0.01525841   0.42028764   0.06954771
   43 1     1      0.00000     20.39722     14.84823      2.51925   #   C13   0.48173221   0.41802372   0.07315695
   44 1     1      0.00000      1.11223     16.16076      2.24600   #   C14   0.03025944   0.45587970   0.06522200
   45 1     1      0.00000      2.50377     16.22969      2.12761   #   C15   0.06283156   0.45805745   0.06178398
   46 1     1      0.00000     15.81930     10.82891      2.59965   #   C16   0.37365217   0.30347784   0.07549154
   47 1     1      0.00000     14.80565     10.10518      1.94661   #   C17   0.34956000   0.28406914   0.05652795
   48 1     1      0.00000     14.82093      8.70689      1.94609   #   C18   0.34961075   0.24427128   0.05651267
   49 1     1      0.00000     15.84794      8.01495      2.59791   #   C19   0.37370468   0.22338885   0.07544102
   50 1     1      0.00000     16.86125      8.72638      3.25038   #   C20   0.39778601   0.24244857   0.09438838
   51 1     1      0.00000     16.84843     10.12467      3.25179   #   C21   0.39779317   0.28224461   0.09442934
   52 1     1      0.00000     15.86119      6.57593      2.59831   #   C22   0.37369914   0.18243023   0.07545280
   53 1     1      0.00000     15.87163      5.37041      2.59882   #   C23   0.37367924   0.14811713   0.07546752
   54 1     1      0.00000     15.88352      3.93138      2.59938   #   C24   0.37364182   0.10715798   0.07548384
   55 1     1      0.00000     17.09980      3.23965      2.62349   #   C25   0.40198385   0.08742587   0.07618384
   56 1     1      0.00000     17.11260      1.84131      2.62323   #   C26   0.40197658   0.04762610   0.07617647
   57 1     1      0.00000     15.90719      1.11736      2.59939   #   C27   0.37357838   0.02706425   0.07548409
   58 1     1      0.00000     14.68895      1.82141      2.57571   #   C28   0.34519302   0.04714621   0.07479631
   59 1     1      0.00000     14.67881      3.21971      2.57569   #   C29   0.34526265   0.08694520   0.07479584
   60 1     1      0.00000     15.57941     15.55551     15.90158   #   C30   0.37298706   0.41375931   0.46176833
   61 1     1      0.00000     16.20931     14.43310     15.33455   #   C31   0.38732693   0.38284654   0.44530231
   62 1     1      0.00000     16.16342     14.21634     13.95429   #   C32   0.38579823   0.37919312   0.40522077
   63 1     1      0.00000     15.49965     15.12270     13.11609   #   C33   0.37020411   0.40651838   0.38088010
   64 1     1      0.00000     14.85385     16.23391     13.68010   #   C34   0.35548854   0.43711784   0.39725851
   65 1     1      0.00000     14.89863     16.45204     15.06007   #   C35   0.35699163   0.44081082   0.43733182
   66 1     1      0.00000     15.43357     14.86568     11.66275   #   C36   0.36817221   0.40185236   0.33867636
   67 1     1      0.00000     15.90220     15.74928     10.75457   #   C37   0.37907482   0.42865742   0.31230376
   68 1     1      0.00000     15.83610     15.49228      9.30123   #   C38   0.37704250   0.42399173   0.27009999
   69 1     1      0.00000     16.48191     14.38111      8.73721   #   C39   0.39175811   0.39339336   0.25372126
   70 1     1      0.00000     16.43700     14.16320      7.35726   #   C40   0.39025222   0.38970691   0.21364852
   71 1     1      0.00000     15.75566     15.06058      6.51559   #   C41   0.37424350   0.41678280   0.18920732
   72 1     1      0.00000     15.12628     16.18210      7.08270   #   C42   0.35991576   0.44767011   0.20567556
   73 1     1      0.00000     15.17230     16.39866      8.46304   #   C43   0.36144757   0.45131743   0.24575947
   74 1     1      0.00000     15.76569     14.89240      5.03515   #   C44   0.37400580   0.41469466   0.14621652
   75 1     1      0.00000     15.79601     14.62092      0.16388   #   C45   0.37322250   0.41584770   0.00475897
   76 1     1      0.00000     15.75729     17.19542      2.54630   #   C46   0.37358219   0.48478113   0.07394233
   77 1     1      0.00000     15.80441     12.31788      2.65273   #   C47   0.37364609   0.34576078   0.07703319
   78 1     4      0.00000     12.31595     14.72273      2.57975   #    N1   0.29244821   0.41434144   0.07491385
   79 1     4      0.00000     19.24572     14.79068      2.61917   #    N2   0.45477933   0.41620352   0.07605842
   80 1     2      0.00000     14.66871     13.35454     11.16537   #   Cl1   0.34977990   0.35974828   0.32423284
   81 1     2      0.00000     16.66706     17.26043     11.25195   #   Cl2   0.39746714   0.47076150   0.32674728
   82 1     5      0.00000      5.07205     13.28481      0.77403   #    O1   0.12193905   0.37670651   0.02247713
   83 1     9      0.00000      4.67071     15.18348      2.03192   #    O2   0.11332622   0.42845419   0.05900523
   84 1     6      0.00000     16.90461     14.68819      0.66704   #    O3   0.39935027   0.41684531   0.01937019
   85 1     6      0.00000     16.88105     14.84689      4.54461   #    O4   0.39997466   0.41429353   0.13197153
   86 1     7      0.00000     16.87426     16.70661      2.53484   #    O5   0.39963224   0.47088924   0.07360960
   87 1     6      0.00000     16.91141     12.82848      2.67680   #    O6   0.39969266   0.36024961   0.07773209
   88 1     8      0.00000     14.65026     16.68482      2.52223   #    O7   0.34753486   0.47029227   0.07324336
   89 1     6      0.00000     14.65706     14.82512      4.53199   #    O8   0.34787728   0.41369702   0.13160526
   90 1     6      0.00000     14.68062     14.66643      0.65441   #    O9   0.34725289   0.41624878   0.01900346
   91 1     6      0.00000     14.68742     12.80671      2.66417   #   O10   0.34759528   0.35965307   0.07736539
   92 1     10     0.00000     14.08899     15.84509     19.80933   #   Zn1   0.33929348   0.41487780   0.57524638
   93 1     11     0.00000     17.01920     15.87378     19.82596   #   Zn2   0.40793408   0.41566407   0.57572906
   94 1     3      0.00000      9.69020     13.84814     18.17888   #    H1   0.23534933   0.36101219   0.52789924
   95 1     3      0.00000      7.27692     13.65923     17.78710   #    H2   0.17867028   0.35634945   0.51652232
   96 1     3      0.00000      6.62771     17.21514     20.15918   #    H3   0.16494398   0.45323497   0.58540550
   97 1     3      0.00000      9.04277     17.39111     20.54223   #    H4   0.22165944   0.45754530   0.59652893
   98 1     3      0.00000      2.98785     14.00740     19.60258   #    H5   0.07882548   0.36294973   0.56924251
   99 1     3      0.00000      0.54608     13.88786     19.78201   #    H6   0.02166243   0.35922016   0.57445288
  100 1     3      0.00000      0.30283     18.17669     19.44108   #    H7   0.01680641   0.48191220   0.56455263
  101 1     3      0.00000      2.75657     18.29655     19.23258   #    H8   0.07424133   0.48570373   0.55849783
  102 1     3      0.00000     14.53073     15.11208     19.15791   #    H9   0.34928689   0.39520232   0.55632948
  103 1     3      0.00000     13.77381     11.72066     18.65415   #   H10   0.33066573   0.29959257   0.54170080
  104 1     3      0.00000     13.80526      9.26850     18.65565   #   H11   0.33086451   0.22979550   0.54174444
  105 1     3      0.00000     17.43384      9.30329     20.97658   #   H12   0.41654146   0.22655481   0.60914212
  106 1     3      0.00000     17.41652     11.75606     20.98139   #   H13   0.41667580   0.29635766   0.60928178
  107 1     3      0.00000     17.81132      4.88375     19.86015   #   H14   0.42408353   0.10279936   0.57672211
  108 1     3      0.00000     17.83917      2.43149     19.85956   #   H15   0.42419728   0.03300322   0.57670475
  109 1     3      0.00000     13.51773      2.39546     19.77570   #   H16   0.32295083   0.03213039   0.57426966
  110 1     3      0.00000     13.50523      4.84818     19.77569   #   H17   0.32319642   0.10194071   0.57426923
  111 1     3      0.00000     16.76545     16.60691     19.83694   #   H18   0.40215523   0.43651083   0.57604804
  112 1     3      0.00000     15.02220     17.07281     18.91249   #   H19   0.36115600   0.45145672   0.54920280
  113 1     3      0.00000     16.50982     14.82376     33.17515   #   H20   0.39970261   0.36144314   0.96337835
  114 1     3      0.00000     16.42736     14.44772     30.75601   #   H21   0.39697678   0.35515011   0.89312865
  115 1     3      0.00000     14.08153     18.03023     30.27005   #   H22   0.34267772   0.45800291   0.87901680
  116 1     3      0.00000     14.16883     18.42291     32.68520   #   H23   0.34551962   0.46477675   0.94915063
  117 1     3      0.00000     16.80078     14.79029     26.58343   #   H24   0.40456958   0.37250691   0.77196041
  118 1     3      0.00000     16.71322     14.39796     24.16780   #   H25   0.40172168   0.36574388   0.70181255
  119 1     3      0.00000     14.37220     17.99724     23.67891   #   H26   0.34753829   0.46907911   0.68761554
  120 1     3      0.00000     14.45489     18.37280     26.09768   #   H27   0.35026939   0.47535918   0.75785456
  121 1     3      0.00000     14.76214     16.68778     20.44505   #   H28   0.35543164   0.43770403   0.59370700
  122 1     1      0.00000     10.94979     15.73948     19.61468   #    C1   0.26568862   0.41222683   0.56959369
  123 1     1      0.00000      9.53246     15.63247     19.38679   #    C2   0.23240231   0.40959647   0.56297602
  124 1     1      0.00000      9.02340     14.58441     18.61164   #    C3   0.22002120   0.38117928   0.54046620
  125 1     1      0.00000      7.64678     14.47939     18.38967   #    C4   0.18769037   0.37859472   0.53402066
  126 1     1      0.00000      6.76124     15.42401     18.94125   #    C5   0.16731964   0.40447539   0.55003797
  127 1     1      0.00000      7.28238     16.47316     19.71961   #    C6   0.17998499   0.43291775   0.57264076
  128 1     1      0.00000      8.65944     16.57596     19.94009   #    C7   0.21232497   0.43544172   0.57904350
  129 1     1      0.00000      5.30333     15.31763     18.71154   #    C8   0.13308255   0.40186628   0.54336745
  130 1     1      0.00000      3.05086     16.16538     19.36199   #    C9   0.08070416   0.42480968   0.56225599
  131 1     1      0.00000      2.41413     14.92112     19.53162   #   C10   0.06556783   0.38908585   0.56718177
  132 1     1      0.00000      1.02232     14.85224     19.65115   #   C11   0.03298991   0.38690750   0.57065289
  133 1     1      0.00000      0.25476     16.02259     19.61309   #   C12   0.01525841   0.42028764   0.56954771
  134 1     1      0.00000     20.17048     15.95101     19.73738   #   C13   0.48173221   0.41802372   0.57315695
  135 1     1      0.00000      0.88549     17.26354     19.46413   #   C14   0.03025944   0.45587970   0.56522200
  136 1     1      0.00000      2.27703     17.33247     19.34574   #   C15   0.06283156   0.45805745   0.56178398
  137 1     1      0.00000     15.59256     11.93169     19.81778   #   C16   0.37365217   0.30347784   0.57549154
  138 1     1      0.00000     14.57891     11.20796     19.16474   #   C17   0.34956000   0.28406914   0.55652795
  139 1     1      0.00000     14.59419      9.80967     19.16422   #   C18   0.34961075   0.24427128   0.55651267
  140 1     1      0.00000     15.62120      9.11773     19.81604   #   C19   0.37370468   0.22338885   0.57544102
  141 1     1      0.00000     16.63451      9.82916     20.46851   #   C20   0.39778601   0.24244857   0.59438838
  142 1     1      0.00000     16.62169     11.22745     20.46992   #   C21   0.39779317   0.28224461   0.59442934
  143 1     1      0.00000     15.63445      7.67871     19.81644   #   C22   0.37369914   0.18243023   0.57545280
  144 1     1      0.00000     15.64489      6.47319     19.81695   #   C23   0.37367924   0.14811713   0.57546752
  145 1     1      0.00000     15.65678      5.03416     19.81751   #   C24   0.37364182   0.10715798   0.57548384
  146 1     1      0.00000     16.87305      4.34243     19.84162   #   C25   0.40198385   0.08742587   0.57618384
  147 1     1      0.00000     16.88586      2.94409     19.84136   #   C26   0.40197658   0.04762610   0.57617647
  148 1     1      0.00000     15.68045      2.22014     19.81752   #   C27   0.37357838   0.02706425   0.57548409
  149 1     1      0.00000     14.46220      2.92419     19.79384   #   C28   0.34519302   0.04714621   0.57479631
  150 1     1      0.00000     14.45207      4.32249     19.79382   #   C29   0.34526265   0.08694520   0.57479584
  151 1     1      0.00000     15.35266     16.65829     33.11971   #   C30   0.37298706   0.41375931   0.96176833
  152 1     1      0.00000     15.98257     15.53588     32.55268   #   C31   0.38732693   0.38284654   0.94530231
  153 1     1      0.00000     15.93668     15.31912     31.17242   #   C32   0.38579823   0.37919312   0.90522077
  154 1     1      0.00000     15.27291     16.22548     30.33422   #   C33   0.37020411   0.40651838   0.88088010
  155 1     1      0.00000     14.62711     17.33669     30.89823   #   C34   0.35548854   0.43711784   0.89725851
  156 1     1      0.00000     14.67189     17.55482     32.27820   #   C35   0.35699163   0.44081082   0.93733182
  157 1     1      0.00000     15.20683     15.96846     28.88088   #   C36   0.36817221   0.40185236   0.83867636
  158 1     1      0.00000     15.67546     16.85206     27.97270   #   C37   0.37907482   0.42865742   0.81230376
  159 1     1      0.00000     15.60936     16.59506     26.51936   #   C38   0.37704250   0.42399173   0.77009999
  160 1     1      0.00000     16.25517     15.48389     25.95534   #   C39   0.39175811   0.39339336   0.75372126
  161 1     1      0.00000     16.21026     15.26598     24.57539   #   C40   0.39025222   0.38970691   0.71364852
  162 1     1      0.00000     15.52892     16.16336     23.73372   #   C41   0.37424350   0.41678280   0.68920732
  163 1     1      0.00000     14.89954     17.28488     24.30083   #   C42   0.35991576   0.44767011   0.70567556
  164 1     1      0.00000     14.94556     17.50144     25.68117   #   C43   0.36144757   0.45131743   0.74575947
  165 1     1      0.00000     15.53895     15.99518     22.25328   #   C44   0.37400580   0.41469466   0.64621652
  166 1     1      0.00000     15.56927     15.72370     17.38201   #   C45   0.37322250   0.41584770   0.50475897
  167 1     1      0.00000     15.53055     18.29820     19.76443   #   C46   0.37358219   0.48478113   0.57394233
  168 1     1      0.00000     15.57767     13.42066     19.87087   #   C47   0.37364609   0.34576078   0.57703319
  169 1     4      0.00000     12.08921     15.82551     19.79788   #    N1   0.29244821   0.41434144   0.57491385
  170 1     4      0.00000     19.01898     15.89346     19.83730   #    N2   0.45477933   0.41620352   0.57605842
  171 1     2      0.00000     14.44197     14.45732     28.38350   #   Cl1   0.34977990   0.35974828   0.82423284
  172 1     2      0.00000     16.44032     18.36321     28.47009   #   Cl2   0.39746714   0.47076150   0.82674728
  173 1     5      0.00000      4.84531     14.38759     17.99216   #    O1   0.12193905   0.37670651   0.52247713
  174 1     9      0.00000      4.44397     16.28626     19.25005   #    O2   0.11332622   0.42845419   0.55900523
  175 1     6      0.00000     16.67787     15.79097     17.88517   #    O3   0.39935027   0.41684531   0.51937019
  176 1     6      0.00000     16.65431     15.94967     21.76274   #    O4   0.39997466   0.41429353   0.63197153
  177 1     7      0.00000     16.64752     17.80939     19.75297   #    O5   0.39963224   0.47088924   0.57360960
  178 1     6      0.00000     16.68467     13.93126     19.89493   #    O6   0.39969266   0.36024961   0.57773209
  179 1     8      0.00000     14.42352     17.78760     19.74036   #    O7   0.34753486   0.47029227   0.57324336
  180 1     6      0.00000     14.43032     15.92790     21.75012   #    O8   0.34787728   0.41369702   0.63160526
  181 1     6      0.00000     14.45388     15.76921     17.87254   #    O9   0.34725289   0.41624878   0.51900346
  182 1     6      0.00000     14.46068     13.90949     19.88231   #   O10   0.34759528   0.35965307   0.57736539
  183 1     10     0.00000     14.15105     32.30934      2.59120   #   Zn1   0.33929348   0.91487780   0.07524638
  184 1     11     0.00000     17.08125     32.33803      2.60783   #   Zn2   0.40793408   0.91566407   0.07572906
  185 1     3      0.00000      9.75225     30.31240      0.96075   #    H1   0.23534933   0.86101219   0.02789924
  186 1     3      0.00000      7.33897     30.12348      0.56897   #    H2   0.17867028   0.85634945   0.01652232
  187 1     3      0.00000      6.68976     33.67939      2.94105   #    H3   0.16494398   0.95323497   0.08540550
  188 1     3      0.00000      9.10483     33.85536      3.32410   #    H4   0.22165944   0.95754530   0.09652893
  189 1     3      0.00000      3.04991     30.47166      2.38445   #    H5   0.07882548   0.86294973   0.06924251
  190 1     3      0.00000      0.60813     30.35211      2.56388   #    H6   0.02166243   0.85922016   0.07445288
  191 1     3      0.00000      0.36488     34.64095      2.22295   #    H7   0.01680641   0.98191220   0.06455263
  192 1     3      0.00000      2.81862     34.76081      2.01445   #    H8   0.07424133   0.98570373   0.05849783
  193 1     3      0.00000     14.59279     31.57634      1.93978   #    H9   0.34928689   0.89520232   0.05632948
  194 1     3      0.00000     13.83586     28.18492      1.43602   #   H10   0.33066573   0.79959257   0.04170080