ITEM: TIMESTEP
0
ITEM: NUMBER OF ATOMS
728
ITEM: BOX BOUNDS xy xz yz pp pp pp
-7.8285358999999999e-01 4.2696090929999997e+01 -3.2937232999999999e-01
0.0000000000000000e+00 3.7339630390000004e+01 -4.5348126000000000e-01
0.0000000000000000e+00 3.4436261369999997e+01 2.2055596999999998e+00
ITEM: ATOMS id type element x y z q
18 3 H 13.3802 2.54605 1.62497 0
19 3 H 13.1121 4.94286 2.02216 0
53 1 C 15.0353 6.71977 2.32686 0
54 1 C 15.2322 5.34307 2.18247 0
57 1 C 15.5483 2.57762 1.72162 0
58 1 C 14.2651 3.1505 1.78033 0
59 1 C 14.1107 4.52102 2.00792 0
55 1 C 16.5177 4.76049 2.15749 0
258 1 C 15.7277 1.1452 1.39955 0
270 8 O 14.6886 0.438246 1.12084 0
56 1 C 16.6702 3.39454 1.93036 0
16 3 H 17.4102 5.36018 2.28917 0
17 3 H 17.6715 2.9833 1.8963 0
268 7 O 16.9263 0.737891 1.06151 0
590 1 C 22.7821 0.223901 2.89155 0
555 3 H 22.276 1.12941 3.20599 0
556 3 H 24.7236 1.05413 3.30635 0
380 3 H 38.448 5.44808 4.42901 0
381 3 H 38.7822 3.14652 3.75325 0
382 3 H 34.5956 2.82842 2.72355 0
383 3 H 34.255 5.1485 3.40866 0
417 1 C 36.119 6.85591 4.1508 0
418 1 C 36.3186 5.48431 3.96682 0
419 1 C 37.5889 4.8834 4.08763 0
420 1 C 37.7831 3.56053 3.69547 0
421 1 C 36.7194 2.80699 3.17092 0
422 1 C 35.4368 3.38227 3.12122 0
423 1 C 35.2404 4.70943 3.51622 0
622 1 C 36.9822 1.4717 2.58527 0
632 7 O 38.2285 1.21398 2.27141 0
634 8 O 36.009 0.87522 1.98456 0
566 3 H 38.3434 0.25119 2.28815 0
576 3 H 35.6762 0.196466 2.48826 0
7 3 H 3.02115 14.5184 2.09538 0
8 3 H 0.56777 14.5886 1.95172 0
52 1 C 15.9854 7.52715 2.45264 0
12 3 H 13.584 11.4572 2.44961 0
13 3 H 13.6801 9.01563 2.38822 0
46 1 C 15.7299 11.7248 2.60758 0
47 1 C 14.5487 10.9694 2.51317 0
48 1 C 14.6049 9.5722 2.47945 0
49 1 C 15.849 8.91067 2.54138 0
77 1 C 15.6943 13.2005 2.59924 0
91 6 O 14.5791 13.8255 2.56219 0
87 6 O 16.7922 13.8466 2.61328 0
14 3 H 17.989 9.18039 2.70053 0
15 3 H 17.8926 11.6103 2.76092 0
50 1 C 17.0207 9.66665 2.65438 0
51 1 C 16.9641 11.0577 2.68688 0
416 1 C 37.0456 7.64594 4.45291 0
376 3 H 34.7853 11.5587 3.64856 0
377 3 H 34.8056 9.14319 3.9522 0
378 3 H 39.01 9.30473 4.95276 0
379 3 H 38.9876 11.724 4.63873 0
410 1 C 36.8851 11.8287 4.11899 0
411 1 C 35.7039 11.0829 3.96895 0
412 1 C 35.7169 9.69713 4.14256 0
413 1 C 36.9163 9.03503 4.47654 0
414 1 C 38.0736 9.79144 4.70341 0
415 1 C 38.0613 11.175 4.52147 0
441 1 C 36.9249 13.2469 3.71263 0
448 6 O 37.9594 14.8653 0.40917 0
451 6 O 38.0504 13.8016 3.49008 0
454 6 O 35.7417 14.8473 0.596388 0
455 6 O 35.8401 13.8753 3.47207 0
35 1 C 6.99891 16.0529 2.43472 0
38 1 C 5.5017 16.0048 2.21277 0
42 1 C 0.369148 16.583 2.78766 0
44 1 C 1.10622 17.6667 3.29761 0
45 1 C 2.51085 17.6298 3.36816 0
5 3 H 6.91718 17.1021 4.32673 0
36 1 C 7.56038 16.6617 3.57539 0
39 1 C 3.24202 16.5175 2.92169 0
83 9 O 4.66057 16.5274 3.11811 0
9 3 H 0.591629 18.5478 3.66354 0
10 3 H 3.03806 18.4768 3.7887 0
4 3 H 7.5104 15.0198 0.59685 0
82 5 O 5.06199 15.5579 1.09852 0
34 1 C 7.89232 15.4983 1.48972 0
40 1 C 2.50928 15.4176 2.41012 0
41 1 C 1.0931 15.4534 2.33744 0
1 10 Zn 14.407 15.963 2.49191 0
32 1 C 9.85098 16.173 2.81308 0
78 4 N 12.0801 15.8222 2.26334 0
31 1 C 11.2554 16.2747 3.03074 0
74 1 C 15.3074 15.9934 5.37889 0
89 6 O 14.2957 15.9992 4.60495 0
28 3 H 12.9577 15.7742 6.76434 0
37 1 C 8.96038 16.7211 3.75913 0
71 1 C 15.128 15.7297 6.81621 0
72 1 C 13.8401 15.606 7.36929 0
70 1 C 16.2503 15.4946 7.62745 0
85 6 O 16.4809 16.1108 4.90053 0
3 3 H 9.93168 15.12 0.916609 0
11 3 H 13.8719 15.873 0.793089 0
33 1 C 9.29098 15.5552 1.67374 0
90 6 O 14.7395 15.8977 0.313941 0
21 3 H 14.5813 17.5828 2.03139 0
30 3 H 14.0366 17.7248 2.91077 0
76 1 C 15.3354 19.011 2.9 0
88 8 O 14.3339 18.3928 2.37187 0
200 3 H 12.9795 20.4254 2.99451 0
239 1 C 15.1099 20.3834 3.40835 0
240 1 C 13.8395 20.9835 3.34317 0
241 1 C 13.6799 22.3373 3.65541 0
238 1 C 16.1991 21.1434 3.86664 0
6 3 H 9.3484 17.2054 4.6475 0
86 7 O 16.5669 18.7244 2.55505 0
372 3 H 21.9094 16.8158 4.02248 0
27 3 H 17.2541 15.5733 7.22878 0
371 3 H 24.3682 16.9399 3.96537 0
2 11 Zn 16.8006 16.1534 2.59784 0
43 1 C 20.2785 15.9556 1.95258 0
79 4 N 19.5361 16.2901 2.8518 0
84 6 O 16.9522 16.1245 0.284612 0
405 1 C 22.4295 16.4827 3.13299 0
406 1 C 21.6988 16.0172 2.0139 0
404 1 C 23.8467 16.5437 3.10444 0
20 3 H 16.6749 17.7624 2.60989 0
199 3 H 17.1898 20.7108 3.93412 0
403 1 C 24.5714 16.1301 1.95963 0
408 1 C 22.4292 15.6137 0.881766 0
409 1 C 23.834 15.6776 0.854403 0
367 3 H 31.2507 15.2972 4.27159 0
368 3 H 28.8266 15.196 4.57392 0
446 5 O 26.3718 15.3873 3.88784 0
397 1 C 30.6133 15.6358 3.46403 0
398 1 C 29.2132 15.5775 3.6374 0
399 1 C 28.3241 15.9945 2.6201 0
402 1 C 26.8244 15.9032 2.80888 0
442 4 N 33.4073 15.8145 2.84833 0
396 1 C 31.1785 16.1157 2.26259 0
395 1 C 32.5829 16.1704 2.03058 0
369 3 H 28.2519 16.8102 0.616019 0
370 3 H 30.6846 16.9129 0.312216 0
400 1 C 28.8915 16.4802 1.42476 0
401 1 C 30.2924 16.5391 1.25077 0
447 9 O 25.9906 16.2474 1.81598 0
375 3 H 34.9522 15.0972 1.12682 0
365 10 Zn 35.7416 15.808 2.57972 0
366 11 Zn 38.1535 15.9067 2.46656 0
407 1 C 41.6446 16.6723 2.79403 0
443 4 N 40.9031 15.8041 2.38463 0
391 3 H 39.1796 17.7755 6.65166 0
434 1 C 38.2539 17.6522 7.20006 0
438 1 C 37.0715 17.0164 5.1024 0
449 6 O 38.1879 16.8984 4.50914 0
453 6 O 35.988 16.7037 4.50604 0
384 3 H 38.1074 17.3747 1.7643 0
385 3 H 35.9331 17.0892 1.50777 0
392 3 H 34.9381 16.9312 6.79615 0
394 3 H 35.4456 17.6113 2.26431 0
435 1 C 37.0534 17.3465 6.5353 0
436 1 C 35.8739 17.1805 7.28101 0
440 1 C 36.8106 18.6782 1.6859 0
450 7 O 37.9848 18.2275 1.31806 0
452 8 O 35.7436 17.9824 1.48997 0
563 3 H 38.8102 20.5136 1.9023 0
564 3 H 34.5036 20.1455 1.9297 0
601 1 C 37.7035 22.3307 2.07297 0
602 1 C 37.8192 20.9468 1.95993 0
603 1 C 36.6735 20.1376 1.89321 0
604 1 C 35.4062 20.7419 1.97703 0
605 1 C 35.2887 22.1307 2.09128 0
433 1 C 38.2901 17.7057 8.59118 0
237 1 C 16.0417 22.4923 4.17604 0
201 3 H 12.7029 22.7917 3.53598 0
236 1 C 14.7834 23.1136 4.03688 0
194 3 H 13.3707 29.194 3.40101 0
195 3 H 13.3527 26.7963 3.81791 0
228 1 C 15.4836 29.4466 3.82201 0
229 1 C 14.2874 28.7159 3.72351 0
230 1 C 14.278 27.3406 3.96327 0
231 1 C 15.4697 26.6731 4.31223 0
234 1 C 15.5686 25.283 4.36925 0
235 1 C 14.6183 24.498 4.1361 0
198 3 H 16.9192 23.0571 4.46656 0
196 3 H 17.5763 26.9245 4.73926 0
197 3 H 17.5924 29.3268 4.31331 0
232 1 C 16.6455 27.4164 4.47952 0
233 1 C 16.6552 28.7899 4.23288 0
565 3 H 34.3 22.5735 2.13034 0
562 3 H 38.6119 22.9203 2.0985 0
600 1 C 36.4321 22.9411 2.12454 0
558 3 H 34.8858 29.0886 2.13441 0
559 3 H 34.95 26.6465 2.16648 0
560 3 H 39.2716 26.7628 2.1726 0
561 3 H 39.2066 29.1962 2.14159 0
592 1 C 37.0404 29.334 2.13285 0
593 1 C 35.8475 28.5908 2.14352 0
594 1 C 35.8854 27.1927 2.16438 0
595 1 C 37.1227 26.5162 2.1745 0
596 1 C 38.3081 27.2604 2.16771 0
597 1 C 38.2696 28.6532 2.14802 0
598 1 C 37.235 25.1266 2.16845 0
599 1 C 36.2672 24.3294 2.17027 0
186 3 H 7.43617 32.4175 3.95159 0
187 3 H 6.8768 34.8203 0.413881 0
189 3 H 2.99811 34.3102 3.71152 0
190 3 H 0.538936 34.1807 3.75324 0
217 1 C 6.94172 33.6062 2.20528 0
218 1 C 7.51344 34.3266 1.13706 0
220 1 C 5.44205 33.4857 2.37111 0
221 1 C 3.19237 33.8881 1.58976 0
222 1 C 2.47237 34.0826 2.79386 0
223 1 C 1.05567 34.019 2.81542 0
224 1 C 0.321207 33.7698 1.63182 0
226 1 C 1.04694 33.5831 0.441677 0
227 1 C 2.4516 33.65 0.421779 0
264 5 O 4.98566 32.7657 3.32441 0
265 9 O 4.61104 34.0274 1.46842 0
216 1 C 7.82629 32.983 3.11489 0
259 1 C 15.5347 30.8529 3.37761 0
183 10 Zn 14.3522 33.3994 2.20021 0
185 3 H 9.86022 32.5692 3.68104 0
188 3 H 9.31113 34.9743 0.142057 0
193 3 H 13.5919 32.6813 0.725612 0
203 3 H 14.5665 34.6835 1.15049 0
210 3 H 13.2801 34.7611 6.25207 0
212 3 H 14.0138 35.1908 1.87 0
213 1 C 11.202 33.8864 1.67719 0
214 1 C 9.79653 33.787 1.88504 0
215 1 C 9.22648 33.0701 2.95951 0
219 1 C 8.91501 34.4147 0.981256 0
253 1 C 15.4488 34.8912 6.22228 0
254 1 C 14.1849 34.8628 6.83845 0
255 1 C 14.0831 34.8605 8.22782 0
256 1 C 15.5725 34.5983 4.78662 0
260 4 N 12.0179 33.3641 2.40892 0
271 6 O 14.5294 34.2887 4.1224 0
272 6 O 14.4128 32.4539 0.222723 0
273 6 O 14.4547 31.4716 3.09462 0
251 1 C 16.4972 35.0056 8.40523 0
252 1 C 16.6018 35.0087 7.0165 0
266 6 O 16.635 32.507 0.107715 0
184 11 Zn 16.7708 33.53 2.1842 0
202 3 H 16.7261 35.013 1.49472 0
209 3 H 17.5884 35.0197 6.5701 0
225 1 C 20.2833 34.347 2.47331 0
261 4 N 19.5318 33.4552 2.13862 0
267 6 O 16.7253 34.4974 4.26008 0
269 6 O 16.664 31.4114 3.18446 0
553 3 H 24.342 32.1326 1.86473 0
554 3 H 21.8849 32.2034 1.75027 0
585 1 C 24.5795 34.1772 2.56198 0
586 1 C 23.8359 33.0509 2.13039 0
587 1 C 22.4184 33.0881 2.07505 0
588 1 C 21.7041 34.2475 2.4614 0
591 1 C 23.8583 35.3187 2.94715 0
549 3 H 31.2375 32.7404 0.475485 0
550 3 H 28.8105 32.6411 0.194437 0
551 3 H 28.2784 34.7411 3.92344 0
552 3 H 30.7143 34.8416 4.20595 0
577 1 C 32.5958 33.8959 2.56923 0
578 1 C 31.1878 33.8016 2.36803 0
579 1 C 30.609 33.1807 1.23986 0
580 1 C 29.2069 33.1239 1.07863 0
581 1 C 28.3283 33.6831 2.03547 0
582 1 C 28.909 34.2975 3.16343 0
583 1 C 30.312 34.3553 3.32503 0
584 1 C 26.8264 33.6313 1.84048 0
624 4 N 33.4124 33.4445 1.79194 0
628 5 O 26.3662 33.1409 0.753007 0
629 9 O 26.0009 34.1906 2.73867 0
623 1 C 37.0171 30.8108 2.11358 0
547 10 Zn 35.7421 33.5774 2.04321 0
548 11 Zn 38.1329 33.7733 2.21838 0
557 3 H 35.254 33.5263 0.326638 0
567 3 H 35.9428 35.2054 1.64092 0
573 3 H 38.5356 33.2102 6.83177 0
574 3 H 34.2438 33.1575 6.28747 0
589 1 C 41.5973 33.7184 1.56613 0
616 1 C 37.5309 33.0684 7.21029 0
617 1 C 36.4115 33.2397 6.37937 0
618 1 C 35.1234 33.0386 6.90796 0
619 1 C 34.9629 32.6517 8.24079 0
620 1 C 36.6038 33.529 4.94944 0
625 4 N 40.859 33.8829 2.51427 0
631 6 O 37.7832 33.654 4.49079 0
633 6 O 38.1176 31.4523 2.15151 0
635 6 O 35.6022 33.5581 4.16205 0
637 6 O 35.9059 31.4416 2.06798 0
615 1 C 37.3686 32.6797 8.53525 0
66 1 C 15.116 13.2845 11.3201 0
80 2 Cl 15.7632 12.1003 10.1857 0
24 3 H 13.1066 13.0738 13.1501 0
25 3 H 13.3592 12.978 15.5823 0
60 1 C 15.5283 12.8747 15.5367 0
63 1 C 15.2305 12.9975 12.753 0
64 1 C 14.0975 12.9751 13.5766 0
65 1 C 14.245 12.9154 14.9626 0
166 1 C 15.6984 13.096 16.9822 0
67 1 C 14.6558 14.5403 10.8879 0
62 1 C 16.5052 12.8711 13.3164 0
61 1 C 16.6551 12.812 14.6999 0
22 3 H 17.656 12.7929 15.113 0
23 3 H 17.3885 12.8941 12.6892 0
26 3 H 16.9653 14.9238 9.56375 0
530 1 C 37.6687 14.8589 16.8751 0
73 1 C 13.6806 15.2298 8.70521 0
29 3 H 12.684 15.124 9.11631 0
68 1 C 14.8048 14.9608 9.49375 0
69 1 C 16.0886 15.1147 8.95621 0
81 2 Cl 14.051 15.7521 12.0167 0
437 1 C 35.9132 17.2327 8.67315 0
390 3 H 39.2361 17.8702 9.09318 0
386 3 H 39.8979 15.2934 15.3566 0
387 3 H 39.9744 15.866 12.9746 0
425 1 C 38.9707 15.3462 14.7994 0
426 1 C 39.0169 15.6783 13.4454 0
430 1 C 37.8775 16.1341 11.2897 0
444 2 Cl 38.7275 15.0032 10.234 0
424 1 C 37.7359 15.1088 15.4278 0
427 1 C 37.8307 15.7888 12.7106 0
428 1 C 36.6005 15.5272 13.3262 0
429 1 C 36.5522 15.1923 14.6761 0
388 3 H 35.6779 15.5893 12.7616 0
389 3 H 35.586 15.0196 15.1338 0
393 3 H 35.0123 17.0252 9.23821 0
431 1 C 37.2041 17.256 10.7779 0
432 1 C 37.1289 17.4506 9.33017 0
445 2 Cl 36.3307 18.3794 11.8162 0
626 2 Cl 37.314 29.7088 9.8413 0
282 3 H 0.701724 32.8385 16.5586 0
283 3 H 3.14851 32.925 16.6628 0
263 2 Cl 15.7419 35.8725 11.5515 0
206 3 H 12.8617 32.5459 12.6163 0
207 3 H 13.1397 31.9309 14.9747 0
211 3 H 13.1086 34.7609 8.69057 0
242 1 C 15.2908 32.2268 14.9847 0
245 1 C 14.9598 32.9545 12.3 0
246 1 C 13.8516 32.557 13.0562 0
247 1 C 14.0142 32.2006 14.3957 0
248 1 C 14.7989 33.3447 10.9003 0
249 1 C 15.1734 34.6215 10.4485 0
250 1 C 15.2425 34.8841 9.01175 0
262 2 Cl 14.2638 32.0835 9.78834 0
348 1 C 15.4553 31.9826 16.4248 0
243 1 C 16.4021 32.5909 14.207 0
244 1 C 16.2369 32.9493 12.8735 0
363 6 O 14.4145 31.7932 17.1715 0
357 6 O 16.6113 32.062 16.9475 0
204 3 H 17.3965 32.6269 14.6346 0
205 3 H 17.1037 33.2367 12.2903 0
208 3 H 17.3997 35.0147 9.00488 0
575 3 H 33.967 32.4899 8.63483 0
568 3 H 38.9896 30.7998 14.7906 0
569 3 H 38.7825 30.7715 12.3581 0
570 3 H 34.4974 30.4618 12.7069 0
571 3 H 34.688 30.4946 15.1444 0
572 3 H 38.2445 32.5463 9.1591 0
606 1 C 36.8551 30.6483 15.1568 0
607 1 C 38.0062 30.6819 14.3525 0
608 1 C 37.8906 30.6671 12.9644 0
609 1 C 36.6262 30.6204 12.366 0
610 1 C 35.4804 30.4962 13.161 0
611 1 C 35.5933 30.5123 14.5504 0
612 1 C 36.5176 30.85 10.9235 0
613 1 C 35.9386 32.0393 10.4469 0
614 1 C 36.0872 32.4499 9.05 0
627 2 Cl 35.1769 33.2047 11.5298 0
712 1 C 36.9526 30.9502 16.5938 0
721 6 O 38.0916 31.1751 17.1197 0
110 3 H 13.0543 3.44925 20.7002 0
144 1 C 14.9939 5.12927 21.2974 0
145 1 C 15.1571 3.75373 21.1111 0
149 1 C 14.1856 1.6635 20.3401 0
150 1 C 14.0377 2.99473 20.7415 0
146 1 C 16.4234 3.13315 21.1466 0
143 1 C 15.9543 5.90133 21.5299 0
147 1 C 16.5693 1.80703 20.7472 0
104 3 H 13.7233 7.44681 21.1498 0
140 1 C 15.8582 7.292 21.5492 0
107 3 H 17.3134 3.68502 21.4239 0
108 3 H 17.5631 1.37642 20.7356 0
471 3 H 39.0351 3.98667 19.3538 0
472 3 H 39.28 1.60437 18.978 0
473 3 H 34.9894 1.20839 18.6376 0
474 3 H 34.7384 3.60866 19.018 0
508 1 C 36.6719 5.36777 19.347 0
509 1 C 36.8593 3.98928 19.2105 0
510 1 C 38.1395 3.39453 19.21 0
511 1 C 38.2825 2.02561 18.9932 0
512 1 C 37.156 1.21867 18.77 0
513 1 C 35.8779 1.8046 18.8041 0
514 1 C 35.733 3.17733 19.022 0
507 1 C 37.6256 6.16907 19.4824 0
100 3 H 0.865296 14.0275 17.2889 0
101 3 H 3.31365 14.0998 17.2413 0
173 5 O 5.3542 13.7896 21.159 0
95 3 H 7.81227 13.5109 21.8113 0
126 1 C 7.30965 14.4374 19.9148 0
129 1 C 5.80872 14.3657 20.1119 0
130 1 C 3.55221 14.693 19.2961 0
133 1 C 0.676067 14.635 19.356 0
135 1 C 1.3951 14.3039 18.1933 0
136 1 C 2.80097 14.3409 18.1639 0
174 9 O 4.97363 14.7916 19.1518 0
125 1 C 8.19898 13.9406 20.896 0
94 3 H 10.2362 13.5794 21.4918 0
103 3 H 13.7414 9.86231 20.8352 0
137 1 C 15.8715 10.0825 21.178 0
138 1 C 14.6662 9.36499 21.1009 0
139 1 C 14.6569 7.98014 21.2816 0
168 1 C 15.9211 11.5018 20.7794 0
182 6 O 14.8395 12.1586 20.6064 0
124 1 C 9.59928 13.98 20.7128 0
102 3 H 13.8871 13.4016 18.3303 0
181 6 O 14.6559 13.2547 17.735 0
92 10 Zn 14.728 14.113 19.7557 0
123 1 C 10.1649 14.5199 19.5372 0
169 4 N 12.3957 14.1391 20.078 0
122 1 C 11.5687 14.5595 19.2936 0
105 3 H 17.9824 7.51296 21.8981 0
106 3 H 17.9981 9.92966 21.5749 0
141 1 C 17.0447 8.02067 21.701 0
142 1 C 17.054 9.40257 21.5128 0
178 6 O 17.0471 12.0345 20.5103 0
462 3 H 24.7358 13.1475 18.6004 0
463 3 H 22.2781 13.2101 18.5056 0
175 6 O 16.8643 13.2957 17.4529 0
495 1 C 24.2083 13.8241 19.259 0
496 1 C 22.7903 13.8516 19.2119 0
93 11 Zn 17.143 14.1763 19.5985 0
170 4 N 19.8927 14.088 19.4104 0
134 1 C 20.6263 14.729 20.1335 0
494 1 C 24.9243 14.6341 20.1756 0
497 1 C 22.0485 14.6788 20.0886 0
458 3 H 31.6217 14.4044 17.7565 0
459 3 H 29.1988 14.3797 17.4272 0
537 5 O 26.7419 14.5684 18.1141 0
488 1 C 30.9799 14.4583 18.6273 0
489 1 C 29.5803 14.4444 18.4383 0
487 1 C 31.5391 14.5485 19.9206 0
490 1 C 28.6853 14.5182 19.5306 0
493 1 C 27.1862 14.5239 19.3121 0
533 4 N 33.7728 14.5257 19.2766 0
460 3 H 28.6027 14.661 21.6893 0
461 3 H 31.0343 14.6878 22.0204 0
486 1 C 32.9432 14.5842 20.1613 0
491 1 C 29.2466 14.601 20.821 0
492 1 C 30.6471 14.6168 21.0108 0
538 9 O 26.3449 14.5977 20.3548 0
467 3 H 35.2399 10.1089 19.4769 0
468 3 H 35.3281 7.66802 19.3923 0
469 3 H 39.6337 7.81344 19.7569 0
470 3 H 39.545 10.243 19.8409 0
501 1 C 37.3847 10.3671 19.6628 0
502 1 C 36.2023 9.61711 19.5441 0
503 1 C 36.254 8.2202 19.4976 0
504 1 C 37.4947 7.55322 19.5705 0
505 1 C 38.6679 8.30383 19.702 0
506 1 C 38.6158 9.69469 19.7479 0
532 1 C 37.3528 11.8427 19.6871 0
542 6 O 38.4503 12.4848 19.7666 0
546 6 O 36.2413 12.4721 19.6233 0
482 3 H 38.5877 14.6675 24.6275 0
456 10 Zn 36.0944 14.6104 19.5943 0
466 3 H 35.6358 14.5216 17.8645 0
525 1 C 37.5505 14.7406 24.9304 0
526 1 C 36.5173 14.725 23.9813 0
529 1 C 36.8343 14.659 22.5467 0
540 6 O 38.0472 14.6755 22.1604 0
544 6 O 35.889 14.6329 21.6945 0
457 11 Zn 38.4738 14.7921 19.8764 0
483 3 H 34.366 14.8377 23.6997 0
498 1 C 41.9499 14.6056 19.2941 0
527 1 C 35.1822 14.8365 24.4117 0
534 4 N 41.211 14.8845 20.2155 0
539 6 O 38.7221 14.9318 17.5818 0
545 6 O 36.5206 14.6511 17.4356 0
98 3 H 3.37148 15.3523 21.3587 0
99 3 H 0.909814 15.2742 21.4181 0
131 1 C 2.83932 15.0332 20.4727 0
132 1 C 1.4203 14.9992 20.5036 0
96 3 H 7.23886 15.375 17.9649 0
127 1 C 7.87792 14.9829 18.7459 0
97 3 H 9.67058 15.4445 17.644 0
112 3 H 14.9201 15.4088 18.7243 0
119 3 H 13.933 16.1731 23.6239 0
121 3 H 14.4054 15.9176 19.4742 0
128 1 C 9.27869 15.0227 18.5621 0
162 1 C 16.0935 15.9681 23.5724 0
163 1 C 14.8669 16.3438 24.145 0
164 1 C 14.8329 16.9309 25.4079 0
165 1 C 16.1268 15.3192 22.2526 0
167 1 C 15.7848 16.992 18.9549 0
179 8 O 14.7256 16.3006 18.715 0
180 6 O 15.0355 15.0015 21.6733 0
291 3 H 13.464 18.4084 19.311 0
330 1 C 15.6325 18.4391 19.215 0
331 1 C 14.358 19.0182 19.3504 0
332 1 C 14.2211 20.4004 19.5014 0
292 3 H 13.2267 20.8261 19.5741 0
327 1 C 15.3519 21.2275 19.5188 0
464 3 H 22.2415 16.1157 21.6934 0
465 3 H 24.6898 16.0582 21.7722 0
161 1 C 17.2866 16.2162 24.2735 0
328 1 C 16.6318 20.6409 19.4226 0
329 1 C 16.767 19.2633 19.2746 0
118 3 H 18.2463 15.9415 23.8537 0
111 3 H 17.086 15.6877 18.9813 0
176 6 O 17.2429 15.0828 21.6939 0
177 7 O 16.966 16.564 18.582 0
290 3 H 17.7629 18.8488 19.1781 0
499 1 C 22.7695 15.4748 20.9967 0
500 1 C 24.1753 15.4461 21.0421 0
160 1 C 17.25 16.8012 25.5386 0
289 3 H 17.5309 21.2449 19.4346 0
475 3 H 38.3498 16.4128 19.9772 0
476 3 H 36.3416 16.2278 19.2057 0
485 3 H 35.6816 16.3728 20.0091 0
528 1 C 34.8898 14.9863 25.7677 0
531 1 C 36.9788 17.6564 20.1672 0
541 7 O 38.2477 17.3775 19.9798 0
543 8 O 36.0546 17.0372 19.5148 0
654 3 H 38.6941 19.4532 21.2944 0
655 3 H 34.575 18.9819 20.067 0
692 1 C 37.4608 21.1911 21.4174 0
693 1 C 37.6945 19.8434 21.1482 0
694 1 C 36.6718 19.031 20.6302 0
695 1 C 35.3867 19.5797 20.4625 0
696 1 C 35.151 20.9308 20.7334 0
653 3 H 38.2919 21.7967 21.7579 0
656 3 H 34.1674 21.3419 20.5359 0
691 1 C 36.1913 21.7586 21.1765 0
285 3 H 13.7021 27.3367 19.5449 0
286 3 H 13.8106 24.8984 19.6242 0
319 1 C 15.8506 27.6163 19.4494 0
320 1 C 14.6721 26.8554 19.5285 0
321 1 C 14.7355 25.4602 19.5763 0
322 1 C 15.9844 24.8062 19.5475 0
325 1 C 16.1198 23.4209 19.5452 0
326 1 C 15.1652 22.6104 19.5792 0
350 1 C 15.7998 29.0884 19.383 0
364 6 O 14.6802 29.7018 19.4459 0
646 3 H 21.9322 29.8166 20.921 0
647 3 H 24.3789 29.7245 20.811 0
323 1 C 17.1557 25.5682 19.4809 0
324 1 C 17.0918 26.9582 19.432 0
287 3 H 18.1271 25.0867 19.4544 0
288 3 H 18.018 27.5166 19.3741 0
360 6 O 16.8858 29.743 19.2664 0
643 3 H 30.6991 29.5561 19.2159 0
649 3 H 34.636 27.8003 20.3225 0
650 3 H 34.6486 25.401 20.7747 0
651 3 H 38.775 25.6645 22.0411 0
652 3 H 38.7606 28.0569 21.5805 0
683 1 C 36.6974 28.1126 20.9147 0
684 1 C 35.5328 27.3495 20.7294 0
685 1 C 35.5418 25.9752 20.9884 0
686 1 C 36.7197 25.3467 21.4448 0
687 1 C 37.8554 26.1254 21.6978 0
688 1 C 37.8476 27.4936 21.4312 0
689 1 C 36.8597 23.9617 21.5309 0
690 1 C 35.9619 23.137 21.2376 0
714 1 C 36.7631 29.5112 20.4498 0
277 3 H 7.49533 30.1495 20.574 0
278 3 H 7.0029 33.6269 18.0709 0
280 3 H 3.02176 31.8507 20.8297 0
281 3 H 0.566095 31.7485 20.73 0
307 1 C 7.90124 30.9727 19.9999 0
308 1 C 7.0334 31.8671 19.3313 0
309 1 C 7.62523 32.9171 18.6009 0
311 1 C 5.53069 31.6867 19.3873 0
312 1 C 3.29661 32.3609 18.7345 0
313 1 C 2.53274 32.0366 19.8831 0
314 1 C 1.11587 31.9886 19.8284 0
315 1 C 0.423062 32.2766 18.6282 0
317 1 C 1.19146 32.6009 17.496 0
318 1 C 2.59637 32.6484 17.5521 0
355 5 O 5.05819 30.6576 19.9808 0
356 9 O 4.719 32.5257 18.7258 0
109 3 H 12.9814 36.2556 20.0033 0
148 1 C 15.1307 36.2042 20.3017 0
274 10 Zn 14.4444 31.8288 19.37 0
276 3 H 9.92593 30.4005 20.4573 0
279 3 H 9.44026 33.8787 17.953 0
284 3 H 13.6443 31.6585 17.7677 0
294 3 H 14.5382 33.4345 18.8965 0
301 3 H 13.592 32.2377 23.7383 0
303 3 H 14.0382 33.5856 19.801 0
304 1 C 11.3027 32.3368 19.0706 0
305 1 C 9.89415 32.1646 19.1938 0
306 1 C 9.30483 31.117 19.934 0
310 1 C 9.02897 33.0614 18.5339 0
344 1 C 15.7574 32.1777 23.5968 0
345 1 C 14.5317 32.2944 24.2736 0
347 1 C 15.788 32.03 22.1351 0
349 1 C 15.3341 34.8672 19.7017 0
351 4 N 12.1163 31.608 19.6021 0
359 7 O 16.5354 34.6192 19.2383 0
361 8 O 14.3029 34.2476 19.2382 0
362 6 O 14.6976 31.9356 21.4812 0
346 1 C 14.5091 32.5269 25.6474 0
293 3 H 16.6749 33.6599 19.2762 0
343 1 C 16.9577 32.2723 24.3207 0
358 6 O 16.9027 32.0512 21.526 0
300 3 H 17.9168 32.1941 23.8238 0
275 11 Zn 16.8374 32.0417 19.2468 0
316 1 C 20.3056 31.4621 19.6522 0
352 4 N 19.5681 32.2195 19.0579 0
644 3 H 24.3942 33.0445 18.0713 0
645 3 H 21.9379 33.151 18.1837 0
676 1 C 24.5956 31.3923 19.4681 0
677 1 C 23.8727 32.354 18.7204 0
678 1 C 22.4568 32.408 18.7766 0
679 1 C 21.7253 31.4944 19.572 0
681 1 C 22.4535 30.5412 20.306 0
682 1 C 23.8576 30.4881 20.2476 0
342 1 C 16.9327 32.5038 25.693 0
640 3 H 31.2794 33.8282 19.3691 0
641 3 H 28.8576 34.1531 19.421 0
642 3 H 28.2675 29.8834 19.267 0
668 1 C 32.6033 31.4226 19.2646 0
669 1 C 31.1996 31.6602 19.2888 0
670 1 C 30.6392 32.9549 19.3447 0
671 1 C 29.2405 33.1415 19.3743 0
672 1 C 28.3483 32.0455 19.3481 0
673 1 C 28.9103 30.7543 19.2877 0
674 1 C 30.3103 30.5666 19.2591 0
675 1 C 26.8509 32.2592 19.3972 0
715 4 N 33.4263 32.3147 19.2841 0
719 5 O 26.4053 33.448 19.5494 0
720 9 O 26.013 31.2119 19.394 0
638 10 Zn 35.7563 32.0838 19.2535 0
639 11 Zn 38.1849 32.1367 19.2493 0
648 3 H 35.0434 31.3442 17.7789 0
657 3 H 38.2727 33.6134 18.5824 0
658 3 H 36.1332 33.3364 18.1958 0
664 3 H 38.9051 34.5598 23.2359 0
665 3 H 34.6756 33.6603 23.3109 0
667 3 H 35.5475 33.8799 18.8592 0
680 1 C 41.7008 32.2948 18.507 0
707 1 C 37.9386 34.5806 23.724 0
708 1 C 36.8055 34.0247 23.1075 0
709 1 C 35.5648 34.0794 23.7654 0
710 1 C 35.4693 34.6419 25.0381 0
711 1 C 36.9266 33.3675 21.7979 0
713 1 C 36.9951 34.9166 18.4579 0
716 4 N 40.9336 32.0416 19.4117 0
722 6 O 38.0777 33.128 21.3173 0
723 7 O 38.196 34.4867 18.1676 0
724 6 O 37.9067 30.0312 20.2273 0
725 8 O 35.9587 34.2307 18.1279 0
726 6 O 35.8797 33.0282 21.1568 0
727 6 O 35.8662 31.1481 17.2724 0
728 6 O 35.6945 30.1612 20.1832 0
706 1 C 37.84 35.1469 24.9922 0
663 3 H 38.7285 35.5471 25.4657 0
666 3 H 34.5145 34.6417 25.55 0
705 1 C 36.6105 35.1563 25.6639 0
718 2 Cl 35.8065 1.86522 27.3955 0
535 2 Cl 36.8767 12.9021 28.7864 0
518 1 C 36.1426 14.9316 30.5202 0
521 1 C 36.1101 14.4509 29.1377 0
524 1 C 37.2565 14.8882 26.2823 0
120 3 H 13.8779 17.1975 25.8445 0
171 2 Cl 14.5865 15.3812 28.1688 0
75 1 C 15.4024 18.1651 34.0988 0
115 3 H 13.2292 17.3062 30.1019 0
116 3 H 13.2358 17.8338 32.486 0
151 1 C 15.3982 17.9649 32.6415 0
152 1 C 16.6059 17.8726 31.9302 0
153 1 C 16.5964 17.5694 30.5691 0
154 1 C 15.3803 17.3628 29.9022 0
155 1 C 14.1748 17.476 30.6029 0
156 1 C 14.182 17.7781 31.9622 0
157 1 C 15.3615 16.9332 28.5012 0
158 1 C 15.9866 17.6675 27.4842 0
159 1 C 16.0229 17.1441 26.1163 0
172 2 Cl 16.7817 19.2081 27.7989 0
373 3 H 21.4557 17.4643 34.4356 0
374 3 H 23.903 17.5835 34.391 0
113 3 H 17.5578 17.998 32.4312 0
114 3 H 17.5379 17.4606 30.0447 0
117 3 H 18.1754 16.9601 26.079 0
479 3 H 33.9967 15.039 30.7673 0
484 3 H 33.8597 15.1023 26.0823 0
478 3 H 38.3026 14.9647 30.577 0
481 3 H 38.0702 14.9373 26.9959 0
517 1 C 37.3851 15.1817 31.1111 0
477 3 H 38.43 15.9662 32.7968 0
480 3 H 34.1097 16.0515 33.0001 0
515 1 C 36.279 16.0945 33.0663 0
516 1 C 37.4545 15.7594 32.3742 0
519 1 C 34.9635 15.2269 31.2181 0
520 1 C 35.031 15.8064 32.4865 0
522 1 C 35.6411 15.2894 28.1172 0
523 1 C 35.9262 15.0145 26.7069 0
439 1 C 36.3655 16.7642 34.3728 0
536 2 Cl 34.8948 16.8486 28.4729 0
191 3 H 0.0699225 35.6037 33.9469 0
192 3 H 2.51759 35.7276 33.9168 0
257 1 C 15.0609 34.3954 34.0322 0
297 3 H 12.8742 33.0385 30.1713 0
298 3 H 12.8855 33.9835 32.4352 0
302 3 H 13.5568 32.6527 26.1478 0
333 1 C 15.0249 33.7488 32.7141 0
334 1 C 16.2138 33.2774 32.1341 0
335 1 C 16.2008 32.7329 30.8545 0
336 1 C 15.0017 32.6606 30.135 0
337 1 C 13.8054 33.0869 30.7227 0
338 1 C 13.8155 33.6284 32.0087 0
339 1 C 15.0155 32.2245 28.7384 0
340 1 C 15.7038 32.9844 27.7824 0
341 1 C 15.7103 32.6374 26.3606 0
353 2 Cl 14.1422 30.7536 28.3189 0
354 2 Cl 16.5547 34.468 28.2271 0
295 3 H 17.1585 33.3514 32.6586 0
296 3 H 17.1313 32.403 30.408 0
299 3 H 17.8678 32.5997 26.2319 0
630 6 O 37.8777 36.0422 34.3777 0
636 6 O 35.6706 35.7788 34.2929 0
621 1 C 36.8166 35.8867 33.6977 0
659 3 H 39.0595 36.0143 32.1575 0
660 3 H 39.2285 35.6203 29.7521 0
661 3 H 34.9624 35.0323 29.5377 0
662 3 H 34.7786 35.4322 31.943 0
697 1 C 36.9039 35.7606 32.2349 0
698 1 C 38.1538 35.8235 31.5951 0
699 1 C 38.2535 35.5989 30.2241 0
700 1 C 37.1069 35.3168 29.4736 0
701 1 C 35.8546 35.2746 30.1022 0
702 1 C 35.7526 35.4985 31.4743 0
703 1 C 37.2399 34.9644 28.058 0
704 1 C 36.5285 35.6286 27.0486 0
717 2 Cl 38.267 33.5731 27.6968 0
ITEM: TIMESTEP
2500
ITEM: NUMBER OF ATOMS
728
ITEM: BOX BOUNDS xy xz yz pp pp pp
-1.0759049309082527e+00 4.1456133893123720e+01 -3.5916533115774796e-01
2.0333097439992898e-01 3.8510690488018106e+01 -1.9566966366267886e+00
1.2487400586412178e-02 3.4423773969413645e+01 3.5799507724182802e+00
ITEM: ATOMS id type element x y z q
191 3 H 1.62997 34.3709 2.52688 0
192 3 H 4.06541 34.5653 2.8392 0
18 3 H 13.5289 0.751706 2.53972 0
19 3 H 12.9903 3.03005 3.23365 0
53 1 C 14.5971 4.72858 4.44345 0
54 1 C 14.8675 3.36754 4.25453 0
57 1 C 15.5057 0.735494 3.43963 0
58 1 C 14.2502 1.29683 3.13601 0
59 1 C 13.9383 2.60069 3.53729 0
52 1 C 15.3889 5.50875 5.02375 0
13 3 H 13.3627 7.03065 3.9575 0
49 1 C 15.2592 6.89879 5.02333 0
55 1 C 16.0977 2.77898 4.62307 0
56 1 C 16.4101 1.47897 4.21792 0
16 3 H 16.8464 3.33964 5.16966 0
17 3 H 17.382 1.07469 4.47297 0
383 3 H 33.8874 2.99877 2.33957 0
380 3 H 38.0826 3.6854 1.52975 0
381 3 H 38.4498 1.29785 1.3479 0
382 3 H 34.268 0.581596 2.14794 0
417 1 C 35.6879 4.93952 1.96748 0
418 1 C 35.9449 3.54861 1.94285 0
419 1 C 37.2353 3.02841 1.68249 0
420 1 C 37.4522 1.65182 1.57707 0
421 1 C 36.3919 0.748547 1.72722 0
422 1 C 35.1075 1.25434 2.02165 0
423 1 C 34.8886 2.63869 2.13375 0
416 1 C 36.608 5.7857 1.80659 0
7 3 H 3.93791 16.2612 4.80244 0
8 3 H 1.52474 15.8023 4.66988 0
82 5 O 5.82979 13.5657 3.20659 0
41 1 C 2.14442 15.6156 3.80102 0
4 3 H 7.98268 12.5849 2.43368 0
12 3 H 13.558 9.41253 3.48087 0
46 1 C 15.4801 9.64369 4.46359 0
47 1 C 14.325 8.93719 4.08042 0
48 1 C 14.2124 7.57156 4.35642 0
77 1 C 15.7446 10.9854 3.91076 0
91 6 O 14.7883 11.6671 3.42053 0
3 3 H 10.3838 12.5146 2.16344 0
34 1 C 8.54176 13.5026 2.5713 0
1 10 Zn 14.9155 13.4845 2.32368 0
32 1 C 10.6993 14.6282 2.58137 0
78 4 N 12.6872 13.5691 2.24485 0
31 1 C 12.1004 14.5887 2.51569 0
89 6 O 14.9367 14.6462 4.15462 0
28 3 H 13.6303 15.6987 6.14933 0
11 3 H 14.2251 12.6348 0.886826 0
33 1 C 9.92309 13.4649 2.4056 0
90 6 O 15.076 12.3418 0.454657 0
87 6 O 16.9425 11.4059 3.80925 0
14 3 H 17.1578 7.14216 6.03408 0
15 3 H 17.3523 9.52148 5.54488 0
50 1 C 16.3405 7.63746 5.52156 0
51 1 C 16.4562 8.99752 5.23577 0
85 6 O 17.1099 14.6439 4.48347 0
372 3 H 22.0547 12.7229 1.70433 0
371 3 H 24.4865 12.9246 1.73021 0
2 11 Zn 17.2002 13.4018 2.56851 0
43 1 C 20.3145 14.1944 3.19569 0
79 4 N 19.7281 13.2988 2.64036 0
84 6 O 17.28 12.2037 0.513027 0
405 1 C 22.5067 13.4721 2.34303 0
406 1 C 21.7124 14.2946 3.1706 0
404 1 C 23.8999 13.5969 2.34298 0
367 3 H 30.994 15.1639 0.542473 0
368 3 H 28.5728 15.268 0.329804 0
446 5 O 26.1862 14.7024 1.02353 0
398 1 C 28.9978 14.966 1.27906 0
397 1 C 30.3881 14.9062 1.40293 0
399 1 C 28.1681 14.6163 2.357 0
402 1 C 26.6928 14.6221 2.19861 0
442 4 N 33.1005 14.4089 1.78545 0
396 1 C 30.9841 14.4978 2.61443 0
395 1 C 32.3718 14.3638 2.74561 0
376 3 H 34.2941 9.79891 1.82928 0
377 3 H 34.3237 7.34216 1.80351 0
378 3 H 38.6421 7.41114 1.70523 0
379 3 H 38.6135 9.84406 1.75608 0
410 1 C 36.4522 10.017 1.80409 0
411 1 C 35.2472 9.28636 1.7891 0
412 1 C 35.2636 7.87979 1.78147 0
413 1 C 36.4909 7.18365 1.76833 0
414 1 C 37.6844 7.91975 1.72457 0
415 1 C 37.6682 9.31549 1.74992 0
441 1 C 36.4586 11.4935 1.96327 0
451 6 O 37.5552 12.0939 2.21604 0
454 6 O 35.7647 14.6399 0.017071 0
455 6 O 35.3704 12.1624 1.90891 0
448 6 O 37.863 15.1116 0.500321 0
375 3 H 34.8733 14.3674 0.364774 0
365 10 Zn 35.283 14.3111 2.13257 0
366 11 Zn 37.3955 14.356 2.82859 0
443 4 N 39.7376 14.6936 3.4381 0
438 1 C 35.7541 13.8248 5.23474 0
449 6 O 36.9849 13.6843 4.97888 0
453 6 O 34.9453 14.0865 4.2847 0
392 3 H 33.2169 14.2385 6.19558 0
435 1 C 35.2921 13.7901 6.63993 0
436 1 C 33.9534 14.0677 6.97131 0
437 1 C 33.5616 14.1775 8.31072 0
38 1 C 6.42139 14.6931 3.04228 0
42 1 C 1.58816 15.1106 2.6048 0
44 1 C 2.4185 14.893 1.49881 0
45 1 C 3.78846 15.1354 1.5905 0
39 1 C 4.34139 15.6294 2.78132 0
83 9 O 5.7275 15.8186 2.8813 0
9 3 H 2.01317 14.504 0.571454 0
10 3 H 4.42676 14.9315 0.740002 0
40 1 C 3.51425 15.8841 3.88033 0
35 1 C 7.89091 14.7007 2.90162 0
5 3 H 8.17285 16.8115 3.30828 0
36 1 C 8.65274 15.8736 3.05708 0
74 1 C 15.9498 15.0199 4.83152 0
37 1 C 10.049 15.8347 2.90263 0
71 1 C 15.7928 15.8461 6.04486 0
72 1 C 14.5296 16.0721 6.62329 0
21 3 H 15.2434 14.6307 1.12362 0
30 3 H 14.7075 15.1905 1.80198 0
88 8 O 15.0886 15.5249 1.05008 0
200 3 H 13.9813 17.5915 2.23942 0
239 1 C 16.0402 17.639 1.56042 0
240 1 C 14.8339 18.2148 1.99754 0
241 1 C 14.709 19.6066 2.10247 0
6 3 H 10.6216 16.7432 3.05016 0
201 3 H 13.7627 20.0256 2.42465 0
73 1 C 14.4306 16.7084 7.86861 0
236 1 C 15.7815 20.4511 1.76312 0
235 1 C 15.5951 21.8462 1.82256 0
70 1 C 16.9371 16.3533 6.67987 0
76 1 C 16.1473 16.1782 1.35925 0
238 1 C 17.1277 18.4752 1.26447 0
237 1 C 17.001 19.8638 1.35812 0
86 7 O 17.3278 15.6429 1.1939 0
27 3 H 17.9224 16.2098 6.25395 0
20 3 H 17.3297 14.8242 1.71768 0
199 3 H 18.0687 18.0599 0.925292 0
403 1 C 24.5284 14.5543 3.16204 0
408 1 C 22.3425 15.2599 3.97285 0
409 1 C 23.7378 15.3763 3.97729 0
198 3 H 17.8547 20.4759 1.09428 0
69 1 C 16.8362 16.9917 7.90825 0
373 3 H 21.7575 15.9091 4.61438 0
374 3 H 24.2099 16.1015 4.62827 0
369 3 H 28.1493 13.9743 4.42983 0
370 3 H 30.5892 13.8903 4.65477 0