Created by Ryther's code on 2025-07-29 22:46:57.475926, modified by xyan11@uic.edu. 

    472 atoms
    560 bonds
    1200 angles
    992 dihedrals
    200 impropers

    7 atom types
    12 bond types
    26 angle types
    6 dihedral types
    2 improper types

0.00000000 27.48941883 xlo xhi
0.00000000 30.98066965 ylo yhi
0.00000000 21.20288769 zlo zhi
0.31659456 4.921e-05 2.60441704 xy xz yz 

Masses 

    1    12.0107  #   C
    2    1.00794  #   H
    3    14.0067  #   N
    4    14.0067  #   N
    5    15.9994  #   O
    6    15.9994  #   O
    7      65.38  #  Zn

Pair Coeffs

    1       0.10500      3.43085  #  C_R C_R
    2       0.04400      2.57113  #  H_ H_
    3       0.06900      3.26069  #  N_2 N_2
    4       0.06900      3.26069  #  N_R N_R
    5       0.06000      3.11815  #  O_2_M O_2_M
    6       0.06000      3.11815  #  O_3_M O_3_M
    7       0.12400      2.46155  #  Zn4+2 Zn4+2

Bond Coeffs

    1     104.44141      2.12294  #  O_2_M Zn4+2 bond order=0.5
    2      48.90184      1.84943  #  H_ Zn4+2 bond order=0.5
    3     103.61325      2.20128  #  N_2 Zn4+2 bond order=0.5
    4     100.76218      2.14847  #  O_3_M Zn4+2 bond order=0.5
    5     357.44038      1.08142  #  C_R H_ bond order=1.0
    6     559.99521      0.99025  #  H_ O_3_M bond order=1.0
    7     462.65505      1.37926  #  C_R C_R bond order=1.5
    8     931.53598      1.20133  #  C_R N_2 bond order=3.0
    9     663.66675      1.34507  #  C_R N_R bond order=1.5
    10    391.66951      1.45800  #  C_R C_R bond order=1.0
    11    714.55744      1.26901  #  C_R O_2_M bond order=1.5
    12    678.02790      1.29140  #  C_R O_3_M bond order=1.5

Angle Coeffs

    1  cosine/periodic         36.20045            1            4  #  H_ Zn4+2 O_2_M
    2  cosine/periodic         97.36576            1            4  #  O_2_M Zn4+2 O_2_M
    3  cosine/periodic        101.82219            1            4  #  N_2 Zn4+2 O_2_M
    4  cosine/periodic         14.11273            1            4  #  H_ Zn4+2 H_
    5  cosine/periodic         37.39156            1            4  #  H_ Zn4+2 N_2
    6  cosine/periodic        100.10309            1            4  #  N_2 Zn4+2 O_3_M
    7  cosine/periodic         35.40556            1            4  #  H_ Zn4+2 O_3_M
    8  cosine/periodic         95.61832            1            4  #  O_2_M Zn4+2 O_3_M
    9  cosine/periodic         11.23300            1            1  #  Zn4+2 H_ Zn4+2
    10 cosine/periodic         43.63912            1            1  #  O_3_M H_ Zn4+2
    11 cosine/periodic        179.74893           -1            3  #  C_R C_R N_2
    12 cosine/periodic        153.68727           -1            3  #  C_R C_R N_R
    13 cosine/periodic        111.29751           -1            3  #  C_R C_R C_R
    14 cosine/periodic         57.28902           -1            3  #  C_R C_R H_
    15 cosine/periodic         51.62857           -1            3  #  C_R C_R H_
    16 cosine/periodic        102.18328           -1            3  #  C_R C_R C_R
    17 cosine/periodic        137.71425           -1            3  #  C_R C_R O_2_M
    18 cosine/periodic        206.77843           -1            3  #  O_2_M C_R O_2_M
    19 cosine/periodic        134.57449           -1            3  #  C_R C_R O_3_M
    20 cosine/periodic        201.38050           -1            3  #  O_2_M C_R O_3_M
    21 fourier                 84.89470      0.36401      0.41847      0.28800  #  C_R N_2 Zn4+2
    22 cosine/periodic        120.00052           -1            3  #  C_R N_R C_R
    23 cosine/periodic         37.72922           -1            3  #  C_R O_2_M Zn4+2
    24 fourier                 99.02913      0.30023      0.26733      0.26675  #  C_R O_3_M Zn4+2
    25 fourier                203.65891      0.30023      0.26733      0.26675  #  C_R O_3_M H_
    26 fourier                 41.31289      0.30023      0.26733      0.26675  #  H_ O_3_M Zn4+2

Dihedral Coeffs

    1       6.73711           -1            2  #  X C_R C_R X bond order=1.5
    2      27.96100           -1            2  #  X C_R N_2 X bond order=3.0
    3       6.73711           -1            2  #  X C_R N_R X bond order=1.5
    4       1.25000           -1            2  #  X C_R C_R X bond order=1.0
    5       6.73711           -1            2  #  X C_R O_2_M X bond order=1.5
    6       0.31957           -1            2  #  X C_R O_3_M X bond order=1.5

Improper Coeffs

    1       2.00000      1.00000     -1.00000      0.00000            1  #  C_R X X X O_2 present=False
    2      16.66667      1.00000     -1.00000      0.00000            1  #  C_R X X X O_2 present=True

Atoms # a, b, c, alpha, beta, gamma: 27.4894188274, 30.9822872640, 21.3622432009, 82.9976246927, 89.9998680240, 89.4145090908 $$$atoms$$$

    1 1     7      0.00000      0.84741     15.42978      5.90424   #   Zn1   0.02536001   0.47463621   0.27846404
    2 1     7      0.00000      3.77781     15.42974      5.90420   #   Zn2   0.13196086   0.47463501   0.27846201
    3 1     2      0.00000     11.33175     15.38005      2.61778   #    H1   0.40662403   0.48606100   0.12346354
    4 1     2      0.00000      9.18497     15.36129      1.37839   #    H2   0.32847962   0.49036964   0.06500954
    5 1     2      0.00000      7.03818     15.38007      2.61778   #    H3   0.25043421   0.48606162   0.12346355
    6 1     2      0.00000      2.36605     14.89280      6.36904   #    H4   0.08082531   0.45546035   0.30038570
    7 1     2      0.00000      2.50423     11.30897      7.12525   #    H5   0.08721855   0.33678270   0.33605085
    8 1     2      0.00000      1.87414     10.72995      4.18685   #    H6   0.06437873   0.32974332   0.19746582
    9 1     2      0.00000      3.38784      9.29456      7.39346   #    H7   0.12012333   0.27069770   0.34870065
   10 1     2      0.00000      3.43101      6.92564      7.93822   #    H8   0.12259941   0.19207350   0.37439326
   11 1     2      0.00000      1.07922      6.07464      4.41498   #    H9   0.03720235   0.17857379   0.20822563
   12 1     2      0.00000      1.03604      8.44356      3.87023   #   H10   0.03472634   0.25719800   0.18253302
   13 1     2      0.00000      2.59292      4.63925      7.62160   #   H11   0.09294713   0.11952815   0.35946041
   14 1     2      0.00000      1.96282      4.06023      4.68320   #   H12   0.07010673   0.11248870   0.22087553
   15 1     2      0.00000      2.25929     15.96674      5.43941   #   H13   0.07649979   0.49381111   0.25654082
   16 1     2      0.00000      3.28062     16.08433      5.08090   #   H14   0.11359337   0.49902814   0.23963248
   17 1     2      0.00000      0.60523     13.61424      1.97605   #   H15   0.01704603   0.43160847   0.09319702
   18 1     2      0.00000      0.60525     14.61889     10.15502   #   H16   0.01704602   0.43160849   0.47894500
   19 1     2      0.00000      3.86112      1.75447      9.83289   #   H17   0.14025450   0.01764548   0.46375231
   20 1     2      0.00000      3.86110      0.74972      1.65307   #   H18   0.14025447   0.01764546   0.07796450
   21 1     2      0.00000      3.28062     16.26412      6.54465   #   H19   0.11359352   0.49902799   0.30866798
   22 1     1      0.00000     11.60264     15.42073      5.30430   #    C1   0.41658565   0.47672255   0.25016874
   23 1     1      0.00000     10.37356     15.40945      4.55935   #    C2   0.37184499   0.47931207   0.21503450
   24 1     1      0.00000     10.39385     15.38826      3.15994   #    C3   0.37252721   0.48417657   0.14903331
   25 1     1      0.00000      9.18497     15.37768      2.46062   #    C4   0.32852285   0.48660767   0.11605094
   26 1     1      0.00000      7.97608     15.38827      3.15994   #    C5   0.28457435   0.48417689   0.14903337
   27 1     1      0.00000      7.99637     15.40946      4.55935   #    C6   0.28536837   0.47931230   0.21503448
   28 1     1      0.00000      6.76729     15.42073      5.30430   #    C7   0.24068724   0.47672271   0.25016868
   29 1     1      0.00000      2.31256     11.50577      6.07990   #    C8   0.08012533   0.34727958   0.28674879
   30 1     1      0.00000      2.12508     10.49788      5.21570   #    C9   0.07364071   0.31817314   0.24599019
   31 1     1      0.00000      2.18539      9.06415      5.59431   #   C10   0.07638461   0.27039400   0.26384682
   32 1     1      0.00000      2.86389      8.61014      6.74128   #   C11   0.10128810   0.25119156   0.31794170
   33 1     1      0.00000      2.90126      7.24720      7.04945   #   C12   0.10316803   0.20597665   0.33247606
   34 1     1      0.00000      2.28167      6.30504      6.21413   #   C13   0.08094110   0.17887747   0.29307946
   35 1     1      0.00000      1.60317      6.75906      5.06716   #   C14   0.05603765   0.19807990   0.23898458
   36 1     1      0.00000      1.56580      8.12200      4.75899   #   C15   0.05415765   0.24329482   0.22445021
   37 1     1      0.00000      2.34197      4.87132      6.59274   #   C16   0.08368504   0.13109833   0.31093609
   38 1     1      0.00000      2.15449      3.86343      5.72854   #   C17   0.07720017   0.10199185   0.27017754
   39 1     1      0.00000      2.31267     14.95089      2.00559   #   C18   0.07866277   0.47463571   0.09459055
   40 1     1      0.00000      1.35550     14.12772      1.38770   #   C19   0.04412128   0.45051524   0.06544855
   41 1     1      0.00000      1.35550     13.95728      0.00016   #   C20   0.04412125   0.45051526   0.00000748
   42 1     1      0.00000      2.31268     15.90865      9.80285   #   C21   0.07866273   0.47463573   0.46233577
   43 1     1      0.00000      3.26906     16.73120     10.42077   #   C22   0.11317571   0.49873622   0.49147877
   44 1     1      0.00000      3.26903     15.59944      1.20697   #   C23   0.11317571   0.49873621   0.05692492
   45 1     1      0.00000      2.31265     15.67438      8.33139   #   C24   0.07868151   0.47290798   0.39293646
   46 1     1      0.00000      2.31260     15.18517      3.47705   #   C25   0.07864051   0.47636380   0.16398962
   47 1     1      0.00000      2.15438      2.37349      5.74205   #   C26   0.07775060   0.05384581   0.27081471
   48 1     1      0.00000      2.31257     12.99570      6.06639   #   C27   0.07957139   0.39542544   0.28611144
   49 1     3      0.00000     12.59221     15.42981      5.90416   #    N1   0.45260796   0.47463735   0.27846035
   50 1     4      0.00000      9.18497     15.41947      5.22129   #    N2   0.32863313   0.47701116   0.24625382
   51 1     3      0.00000      5.77772     15.42981      5.90416   #    N3   0.20471287   0.47463743   0.27846033
   52 1     5      0.00000      3.42465     15.26372      3.97088   #    O1   0.11908753   0.47694141   0.18727993
   53 1     5      0.00000      3.42470     15.59578      7.83753   #    O2   0.11914207   0.47232912   0.36964445
   54 1     6      0.00000      3.26641      1.87346      5.74662   #    O3   0.11838980   0.03768745   0.27103024
   55 1     5      0.00000      3.42464     13.49571      6.06178   #    O4   0.11983976   0.41158309   0.28589409
   56 1     5      0.00000      1.04228      1.87348      5.74666   #    O5   0.03748106   0.03768814   0.27103196
   57 1     5      0.00000      1.20057     15.59582      7.83756   #    O6   0.03823332   0.47233033   0.36964610
   58 1     5      0.00000      1.20052     15.26376      3.97089   #    O7   0.03817879   0.47694260   0.18728083
   59 1     5      0.00000      1.20051     13.49575      6.06180   #    O8   0.03893102   0.41158428   0.28589504
   60 1     7      0.00000      0.84744     16.73199     16.50569   #   Zn1   0.02536001   0.47463621   0.77846404
   61 1     7      0.00000      3.77783     16.73195     16.50564   #   Zn2   0.13196086   0.47463501   0.77846201
   62 1     2      0.00000     11.33177     16.68225     13.21923   #    H1   0.40662403   0.48606100   0.62346354
   63 1     2      0.00000      9.18499     16.66350     11.97983   #    H2   0.32847962   0.49036964   0.56500954
   64 1     2      0.00000      7.03821     16.68227     13.21923   #    H3   0.25043421   0.48606162   0.62346355
   65 1     2      0.00000      2.36608     16.19500     16.97049   #    H4   0.08082531   0.45546035   0.80038570
   66 1     2      0.00000      2.50425     12.61118     17.72669   #    H5   0.08721855   0.33678270   0.83605085
   67 1     2      0.00000      1.87416     12.03216     14.78829   #    H6   0.06437873   0.32974332   0.69746582
   68 1     2      0.00000      3.38786     10.59677     17.99490   #    H7   0.12012333   0.27069770   0.84870065
   69 1     2      0.00000      3.43104      8.22785     18.53966   #    H8   0.12259941   0.19207350   0.87439326
   70 1     2      0.00000      1.07924      7.37685     15.01643   #    H9   0.03720235   0.17857379   0.70822563
   71 1     2      0.00000      1.03607      9.74577     14.47167   #   H10   0.03472634   0.25719800   0.68253302
   72 1     2      0.00000      2.59295      5.94146     18.22304   #   H11   0.09294713   0.11952815   0.85946041
   73 1     2      0.00000      1.96284      5.36244     15.28464   #   H12   0.07010673   0.11248870   0.72087553
   74 1     2      0.00000      2.25931     17.26895     16.04085   #   H13   0.07649979   0.49381111   0.75654082
   75 1     2      0.00000      3.28064     17.38654     15.68234   #   H14   0.11359337   0.49902814   0.73963248
   76 1     2      0.00000      0.60526     14.91645     12.57749   #   H15   0.01704603   0.43160847   0.59319702
   77 1     2      0.00000      0.60528     15.92110     20.75646   #   H16   0.01704602   0.43160849   0.97894500
   78 1     2      0.00000      3.86115      3.05668     20.43433   #   H17   0.14025450   0.01764548   0.96375231
   79 1     2      0.00000      3.86113      2.05193     12.25452   #   H18   0.14025447   0.01764546   0.57796450
   80 1     2      0.00000      3.28065     17.56633     17.14610   #   H19   0.11359352   0.49902799   0.80866798
   81 1     1      0.00000     11.60266     16.72294     15.90574   #    C1   0.41658565   0.47672255   0.75016874
   82 1     1      0.00000     10.37359     16.71166     15.16080   #    C2   0.37184499   0.47931207   0.71503450
   83 1     1      0.00000     10.39388     16.69047     13.76138   #    C3   0.37252721   0.48417657   0.64903331
   84 1     1      0.00000      9.18499     16.67989     13.06206   #    C4   0.32852285   0.48660767   0.61605094
   85 1     1      0.00000      7.97610     16.69048     13.76138   #    C5   0.28457435   0.48417689   0.64903337
   86 1     1      0.00000      7.99639     16.71166     15.16080   #    C6   0.28536837   0.47931230   0.71503448
   87 1     1      0.00000      6.76732     16.72294     15.90574   #    C7   0.24068724   0.47672271   0.75016868
   88 1     1      0.00000      2.31258     12.80798     16.68135   #    C8   0.08012533   0.34727958   0.78674879
   89 1     1      0.00000      2.12511     11.80009     15.81715   #    C9   0.07364071   0.31817314   0.74599019
   90 1     1      0.00000      2.18541     10.36636     16.19576   #   C10   0.07638461   0.27039400   0.76384682
   91 1     1      0.00000      2.86392      9.91234     17.34273   #   C11   0.10128810   0.25119156   0.81794170
   92 1     1      0.00000      2.90128      8.54941     17.65090   #   C12   0.10316803   0.20597665   0.83247606
   93 1     1      0.00000      2.28169      7.60725     16.81557   #   C13   0.08094110   0.17887747   0.79307946
   94 1     1      0.00000      1.60319      8.06127     15.66861   #   C14   0.05603765   0.19807990   0.73898458
   95 1     1      0.00000      1.56582      9.42421     15.36044   #   C15   0.05415765   0.24329482   0.72445021
   96 1     1      0.00000      2.34200      6.17353     17.19419   #   C16   0.08368504   0.13109833   0.81093609
   97 1     1      0.00000      2.15452      5.16564     16.32999   #   C17   0.07720017   0.10199185   0.77017754
   98 1     1      0.00000      2.31269     16.25309     12.60704   #   C18   0.07866277   0.47463571   0.59459055
   99 1     1      0.00000      1.35553     15.42993     11.98914   #   C19   0.04412128   0.45051524   0.56544855
  100 1     1      0.00000      1.35552     15.25949     10.60160   #   C20   0.04412125   0.45051526   0.50000748
  101 1     1      0.00000      2.31271     17.21086     20.40430   #   C21   0.07866273   0.47463573   0.96233577
  102 1     1      0.00000      3.26908     18.03341     21.02221   #   C22   0.11317571   0.49873622   0.99147877
  103 1     1      0.00000      3.26906     16.90165     11.80842   #   C23   0.11317571   0.49873621   0.55692492
  104 1     1      0.00000      2.31267     16.97658     18.93283   #   C24   0.07868151   0.47290798   0.89293646
  105 1     1      0.00000      2.31263     16.48738     14.07850   #   C25   0.07864051   0.47636380   0.66398962
  106 1     1      0.00000      2.15440      3.67570     16.34350   #   C26   0.07775060   0.05384581   0.77081471
  107 1     1      0.00000      2.31260     14.29791     16.66783   #   C27   0.07957139   0.39542544   0.78611144
  108 1     3      0.00000     12.59224     16.73202     16.50561   #    N1   0.45260796   0.47463735   0.77846035
  109 1     4      0.00000      9.18499     16.72168     15.82274   #    N2   0.32863313   0.47701116   0.74625382
  110 1     3      0.00000      5.77774     16.73202     16.50561   #    N3   0.20471287   0.47463743   0.77846033
  111 1     5      0.00000      3.42468     16.56593     14.57232   #    O1   0.11908753   0.47694141   0.68727993
  112 1     5      0.00000      3.42473     16.89799     18.43897   #    O2   0.11914207   0.47232912   0.86964445
  113 1     6      0.00000      3.26644      3.17567     16.34807   #    O3   0.11838980   0.03768745   0.77103024
  114 1     5      0.00000      3.42467     14.79792     16.66322   #    O4   0.11983976   0.41158309   0.78589409
  115 1     5      0.00000      1.04230      3.17569     16.34810   #    O5   0.03748106   0.03768814   0.77103196
  116 1     5      0.00000      1.20059     16.89803     18.43901   #    O6   0.03823332   0.47233033   0.86964610
  117 1     5      0.00000      1.20054     16.56597     14.57234   #    O7   0.03817879   0.47694260   0.68728083
  118 1     5      0.00000      1.20054     14.79795     16.66324   #    O8   0.03893102   0.41158428   0.78589504
  119 1     7      0.00000      1.00571     30.92012      5.90424   #   Zn1   0.02536001   0.97463621   0.27846404
  120 1     7      0.00000      3.93611     30.92008      5.90420   #   Zn2   0.13196086   0.97463501   0.27846201
  121 1     2      0.00000     11.49005     30.87038      2.61778   #    H1   0.40662403   0.98606100   0.12346354
  122 1     2      0.00000      9.34326     30.85163      1.37839   #    H2   0.32847962   0.99036964   0.06500954
  123 1     2      0.00000      7.19648     30.87040      2.61778   #    H3   0.25043421   0.98606162   0.12346355
  124 1     2      0.00000      2.52435     30.38313      6.36904   #    H4   0.08082531   0.95546035   0.30038570
  125 1     2      0.00000      2.66252     26.79930      7.12525   #    H5   0.08721855   0.83678270   0.33605085
  126 1     2      0.00000      2.03244     26.22029      4.18685   #    H6   0.06437873   0.82974332   0.19746582
  127 1     2      0.00000      3.54614     24.78489      7.39346   #    H7   0.12012333   0.77069770   0.34870065
  128 1     2      0.00000      3.58931     22.41598      7.93822   #    H8   0.12259941   0.69207350   0.37439326
  129 1     2      0.00000      1.23751     21.56498      4.41498   #    H9   0.03720235   0.67857379   0.20822563
  130 1     2      0.00000      1.19434     23.93389      3.87023   #   H10   0.03472634   0.75719800   0.18253302
  131 1     2      0.00000      2.75122     20.12958      7.62160   #   H11   0.09294713   0.61952815   0.35946041
  132 1     2      0.00000      2.12111     19.55056      4.68320   #   H12   0.07010673   0.61248870   0.22087553
  133 1     2      0.00000      2.41758     31.45707      5.43941   #   H13   0.07649979   0.99381111   0.25654082
  134 1     2      0.00000      3.43891     31.57466      5.08090   #   H14   0.11359337   0.99902814   0.23963248
  135 1     2      0.00000      0.76353     29.10458      1.97605   #   H15   0.01704603   0.93160847   0.09319702
  136 1     2      0.00000      0.76355     30.10923     10.15502   #   H16   0.01704602   0.93160849   0.47894500
  137 1     2      0.00000      4.01942     17.24481      9.83289   #   H17   0.14025450   0.51764548   0.46375231
  138 1     2      0.00000      4.01940     16.24006      1.65307   #   H18   0.14025447   0.51764546   0.07796450
  139 1     2      0.00000      3.43892     31.75446      6.54465   #   H19   0.11359352   0.99902799   0.30866798
  140 1     1      0.00000     11.76093     30.91106      5.30430   #    C1   0.41658565   0.97672255   0.25016874
  141 1     1      0.00000     10.53186     30.89978      4.55935   #    C2   0.37184499   0.97931207   0.21503450
  142 1     1      0.00000     10.55215     30.87859      3.15994   #    C3   0.37252721   0.98417657   0.14903331
  143 1     1      0.00000      9.34326     30.86801      2.46062   #    C4   0.32852285   0.98660767   0.11605094
  144 1     1      0.00000      8.13438     30.87860      3.15994   #    C5   0.28457435   0.98417689   0.14903337
  145 1     1      0.00000      8.15467     30.89979      4.55935   #    C6   0.28536837   0.97931230   0.21503448
  146 1     1      0.00000      6.92559     30.91107      5.30430   #    C7   0.24068724   0.97672271   0.25016868
  147 1     1      0.00000      2.47086     26.99610      6.07990   #    C8   0.08012533   0.84727958   0.28674879
  148 1     1      0.00000      2.28338     25.98821      5.21570   #    C9   0.07364071   0.81817314   0.24599019
  149 1     1      0.00000      2.34368     24.55449      5.59431   #   C10   0.07638461   0.77039400   0.26384682
  150 1     1      0.00000      3.02219     24.10047      6.74128   #   C11   0.10128810   0.75119156   0.31794170
  151 1     1      0.00000      3.05955     22.73754      7.04945   #   C12   0.10316803   0.70597665   0.33247606
  152 1     1      0.00000      2.43997     21.79538      6.21413   #   C13   0.08094110   0.67887747   0.29307946
  153 1     1      0.00000      1.76146     22.24940      5.06716   #   C14   0.05603765   0.69807990   0.23898458
  154 1     1      0.00000      1.72410     23.61233      4.75899   #   C15   0.05415765   0.74329482   0.22445021
  155 1     1      0.00000      2.50027     20.36166      6.59274   #   C16   0.08368504   0.63109833   0.31093609
  156 1     1      0.00000      2.31279     19.35377      5.72854   #   C17   0.07720017   0.60199185   0.27017754
  157 1     1      0.00000      2.47096     30.44122      2.00559   #   C18   0.07866277   0.97463571   0.09459055
  158 1     1      0.00000      1.51380     29.61805      1.38770   #   C19   0.04412128   0.95051524   0.06544855
  159 1     1      0.00000      1.51380     29.44762      0.00016   #   C20   0.04412125   0.95051526   0.00000748
  160 1     1      0.00000      2.47098     31.39898      9.80285   #   C21   0.07866273   0.97463573   0.46233577
  161 1     1      0.00000      3.42735     32.22153     10.42077   #   C22   0.11317571   0.99873622   0.49147877
  162 1     1      0.00000      3.42733     31.08977      1.20697   #   C23   0.11317571   0.99873621   0.05692492
  163 1     1      0.00000      2.47095     31.16471      8.33139   #   C24   0.07868151   0.97290798   0.39293646
  164 1     1      0.00000      2.47090     30.67550      3.47705   #   C25   0.07864051   0.97636380   0.16398962
  165 1     1      0.00000      2.31268     17.86383      5.74205   #   C26   0.07775060   0.55384581   0.27081471
  166 1     1      0.00000      2.47087     28.48603      6.06639   #   C27   0.07957139   0.89542544   0.28611144
  167 1     3      0.00000     12.75051     30.92014      5.90416   #    N1   0.45260796   0.97463735   0.27846035
  168 1     4      0.00000      9.34326     30.90981      5.22129   #    N2   0.32863313   0.97701116   0.24625382
  169 1     3      0.00000      5.93602     30.92015      5.90416   #    N3   0.20471287   0.97463743   0.27846033
  170 1     5      0.00000      3.58295     30.75405      3.97088   #    O1   0.11908753   0.97694141   0.18727993
  171 1     5      0.00000      3.58300     31.08612      7.83753   #    O2   0.11914207   0.97232912   0.36964445
  172 1     6      0.00000      3.42471     17.36379      5.74662   #    O3   0.11838980   0.53768745   0.27103024
  173 1     5      0.00000      3.58294     28.98604      6.06178   #    O4   0.11983976   0.91158309   0.28589409
  174 1     5      0.00000      1.20058     17.36382      5.74666   #    O5   0.03748106   0.53768814   0.27103196
  175 1     5      0.00000      1.35886     31.08616      7.83756   #    O6   0.03823332   0.97233033   0.36964610
  176 1     5      0.00000      1.35882     30.75409      3.97089   #    O7   0.03817879   0.97694260   0.18728083
  177 1     5      0.00000      1.35881     28.98608      6.06180   #    O8   0.03893102   0.91158428   0.28589504
  178 1     7      0.00000      1.00573     32.22233     16.50569   #   Zn1   0.02536001   0.97463621   0.77846404
  179 1     7      0.00000      3.93613     32.22229     16.50564   #   Zn2   0.13196086   0.97463501   0.77846201
  180 1     2      0.00000     11.49007     32.17259     13.21923   #    H1   0.40662403   0.98606100   0.62346354
  181 1     2      0.00000      9.34329     32.15384     11.97983   #    H2   0.32847962   0.99036964   0.56500954
  182 1     2      0.00000      7.19650     32.17261     13.21923   #    H3   0.25043421   0.98606162   0.62346355
  183 1     2      0.00000      2.52437     31.68534     16.97049   #    H4   0.08082531   0.95546035   0.80038570
  184 1     2      0.00000      2.66255     28.10151     17.72669   #    H5   0.08721855   0.83678270   0.83605085
  185 1     2      0.00000      2.03246     27.52250     14.78829   #    H6   0.06437873   0.82974332   0.69746582
  186 1     2      0.00000      3.54616     26.08710     17.99490   #    H7   0.12012333   0.77069770   0.84870065
  187 1     2      0.00000      3.58934     23.71819     18.53966   #    H8   0.12259941   0.69207350   0.87439326
  188 1     2      0.00000      1.23754     22.86719     15.01643   #    H9   0.03720235   0.67857379   0.70822563
  189 1     2      0.00000      1.19437     25.23610     14.47167   #   H10   0.03472634   0.75719800   0.68253302
  190 1     2      0.00000      2.75124     21.43179     18.22304   #   H11   0.09294713   0.61952815   0.85946041
  191 1     2      0.00000      2.12114     20.85277     15.28464   #   H12   0.07010673   0.61248870   0.72087553
  192 1     2      0.00000      2.41761     32.75928     16.04085   #   H13   0.07649979   0.99381111   0.75654082
  193 1     2      0.00000      3.43894     32.87687     15.68234   #   H14   0.11359337   0.99902814   0.73963248
  194 1     2      0.00000      0.76356     30.40679     12.57749   #   H15   0.01704603   0.93160847   0.59319702
  195 1     2      0.00000      0.76358     31.41144     20.75646   #   H16   0.01704602   0.93160849   0.97894500
  196 1     2      0.00000      4.01945     18.54702     20.43433   #   H17   0.14025450   0.51764548   0.96375231
  197 1     2      0.00000      4.01943     17.54226     12.25452   #   H18   0.14025447   0.51764546   0.57796450
  198 1     2      0.00000      3.43895     33.05666     17.14610   #   H19   0.11359352   0.99902799   0.80866798
  199 1     1      0.00000     11.76096     32.21327     15.90574   #    C1   0.41658565   0.97672255   0.75016874
  200 1     1      0.00000     10.53188     32.20199     15.16080   #    C2   0.37184499   0.97931207   0.71503450
  201 1     1      0.00000     10.55217     32.18080     13.76138   #    C3   0.37252721   0.98417657   0.64903331
  202 1     1      0.00000      9.34329     32.17022     13.06206   #    C4   0.32852285   0.98660767   0.61605094
  203 1     1      0.00000      8.13440     32.18081     13.76138   #    C5   0.28457435   0.98417689   0.64903337
  204 1     1      0.00000      8.15469     32.20200     15.16080   #    C6   0.28536837   0.97931230   0.71503448
  205 1     1      0.00000      6.92561     32.21328     15.90574   #    C7   0.24068724   0.97672271   0.75016868
  206 1     1      0.00000      2.47088     28.29831     16.68135   #    C8   0.08012533   0.84727958   0.78674879
  207 1     1      0.00000      2.28341     27.29042     15.81715   #    C9   0.07364071   0.81817314   0.74599019
  208 1     1      0.00000      2.34371     25.85670     16.19576   #   C10   0.07638461   0.77039400   0.76384682
  209 1     1      0.00000      3.02221     25.40268     17.34273   #   C11   0.10128810   0.75119156   0.81794170
  210 1     1      0.00000      3.05958     24.03974     17.65090   #   C12   0.10316803   0.70597665   0.83247606
  211 1     1      0.00000      2.43999     23.09759     16.81557   #   C13   0.08094110   0.67887747   0.79307946
  212 1     1      0.00000      1.76149     23.55161     15.66861   #   C14   0.05603765   0.69807990   0.73898458
  213 1     1      0.00000      1.72412     24.91454     15.36044   #   C15   0.05415765   0.74329482   0.72445021
  214 1     1      0.00000      2.50030     21.66386     17.19419   #   C16   0.08368504   0.63109833   0.81093609
  215 1     1      0.00000      2.31281     20.65597     16.32999   #   C17   0.07720017   0.60199185   0.77017754
  216 1     1      0.00000      2.47099     31.74343     12.60704   #   C18   0.07866277   0.97463571   0.59459055
  217 1     1      0.00000      1.51382     30.92026     11.98914   #   C19   0.04412128   0.95051524   0.56544855
  218 1     1      0.00000      1.51382     30.74983     10.60160   #   C20   0.04412125   0.95051526   0.50000748
  219 1     1      0.00000      2.47100     32.70119     20.40430   #   C21   0.07866273   0.97463573   0.96233577