LAMMPS (29 Aug 2024 - Update 3)
  using 1 OpenMP thread(s) per MPI task
units           real
atom_style      full
boundary        p p p

bond_style      harmonic
angle_style     hybrid cosine/periodic fourier
dihedral_style  harmonic
improper_style  fourier

dielectric      1.0
pair_style      lj/cut 12.5
pair_modify     shift yes mix geometric
special_bonds   lj 0.0 0.0 1.0
box             tilt large

The 'box' command has been removed and will be ignored

read_data       data.lmp
Reading data file ...
  triclinic box = (0 0 0) to (27.489419 30.98067 21.202888) with tilt (0.31659456 4.921e-05 2.604417)
  1 by 1 by 1 MPI processor grid
WARNING: Atom style in data file a, b, c, alpha, beta, gamma: 27.4894188274, 30.9822872640, 21.3622432009, 82.9976246927, 89.9998680240, 89.4145090908 $$$atoms$$$ differs from currently defined atom style full (src/src/read_data.cpp:706)
  reading atoms ...
  472 atoms
  scanning bonds ...
  9 = max bonds/atom
  scanning angles ...
  36 = max angles/atom
  scanning dihedrals ...
  12 = max dihedrals/atom
  scanning impropers ...
  2 = max impropers/atom
  triclinic box = (0 0 0) to (27.489419 30.98067 21.202888) with tilt (0.31659456 4.921e-05 2.604417)
  1 by 1 by 1 MPI processor grid
  reading bonds ...
  560 bonds
  reading angles ...
  1200 angles
  reading dihedrals ...
  992 dihedrals
  reading impropers ...
  200 impropers
Finding 1-2 1-3 1-4 neighbors ...
  special bond factors lj:    0        0        1       
  special bond factors coul:  0        0        0       
     9 = max # of 1-2 neighbors
    14 = max # of 1-3 neighbors
    33 = max # of 1-4 neighbors
    25 = max # of special neighbors
  special bonds CPU = 0.000 seconds
  read_data CPU = 0.201 seconds




# simulation
fix                 fxnpt all npt temp 300.0 300.0 $(200.0*dt) tri 1.0 1.0 $(800.0*dt)
fix                 fxnpt all npt temp 300.0 300.0 200 tri 1.0 1.0 $(800.0*dt)
fix                 fxnpt all npt temp 300.0 300.0 200 tri 1.0 1.0 800
variable            Nevery equal 2500
thermo              ${Nevery}
thermo              2500
thermo_style        custom step cpu dt time temp press pe ke etotal density xlo ylo zlo cella cellb cellc cellalpha cellbeta cellgamma
thermo_modify       flush yes
minimize            1.0e-10 1.0e-10 10000 100000
Generated 21 of 21 mixed pair_coeff terms from geometric mixing rule
Neighbor list info ...
  update: every = 1 steps, delay = 0 steps, check = yes
  max neighbors/atom: 2000, page size: 100000
  master list distance cutoff = 14.5
  ghost atom cutoff = 14.5
  binsize = 7.25, bins = 4 5 3
  1 neighbor lists, perpetual/occasional/extra = 1 0 0
  (1) pair lj/cut, perpetual
      attributes: half, newton on
      pair build: half/bin/newton/tri
      stencil: half/bin/3d/tri
      bin: standard
WARNING: Inconsistent image flags (src/src/domain.cpp:1051)
Per MPI rank memory allocation (min/avg/max) = 23.45 | 23.45 | 23.45 Mbytes
   Step          CPU             Dt            Time           Temp          Press          PotEng         KinEng         TotEng        Density          Xlo            Ylo            Zlo           Cella          Cellb          Cellc        CellAlpha       CellBeta      CellGamma   
         0   0              1              0              0              33694.547      8245.1346      0              8245.1346      0.47393474     0              0              0              27.489419      30.982287      21.362243      82.997625      89.999868      89.414509    
