Created by Ryther's code on 2025-08-05 19:29:08.088995, modified by xyan11@uic.edu. 

    560 atoms
    664 bonds
    1408 angles
    1184 dihedrals
    224 impropers

    7 atom types
    12 bond types
    20 angle types
    6 dihedral types
    2 improper types

0.00000000 34.9152047 xlo xhi
0.00000000 20.59169958 ylo yhi
0.00000000 20.51508517 zlo zhi
-0.60609888 -1.03559383 1.56350615 xy xz yz 

Masses 

    1    12.0107  #   C
    2    12.0107  #   C
    3    1.00794  #   H
    4    14.0067  #   N
    5    15.9994  #   O
    6    15.9994  #   O
    7      65.38  #  Zn

Pair Coeffs

    1       0.10500      3.43085  #  C_3 C_3
    2       0.10500      3.43085  #  C_R C_R
    3       0.04400      2.57113  #  H_ H_
    4       0.06900      3.26069  #  N_2 N_2
    5       0.06000      3.11815  #  O_2_M O_2_M
    6       0.06000      3.11815  #  O_3 O_3
    7       0.12400      2.46155  #  Zn4+2 Zn4+2

Bond Coeffs

    1     104.44141      2.12294  #  O_2_M Zn4+2 bond order=0.5
    2     103.61325      2.20128  #  N_2 Zn4+2 bond order=0.5
    3      48.90184      1.84943  #  H_ Zn4+2 bond order=0.5
    4     357.44038      1.08142  #  C_R H_ bond order=1.0
    5      97.41657      1.20000  #  H_ H_ bond order=1.0
    6     331.06939      1.10940  #  C_3 H_ bond order=1.0
    7     462.65505      1.37926  #  C_R C_R bond order=1.5
    8     931.53598      1.20133  #  C_R N_2 bond order=3.0
    9     391.66951      1.45800  #  C_R C_R bond order=1.0
    10    572.46041      1.36631  #  C_R O_3 bond order=1.0
    11    539.20166      1.39385  #  C_3 O_3 bond order=1.0
    12    714.55744      1.26901  #  C_R O_2_M bond order=1.5

Angle Coeffs

    1  cosine/periodic         97.36576            1            4  #  O_2_M Zn4+2 O_2_M
    2  cosine/periodic        101.82219            1            4  #  N_2 Zn4+2 O_2_M
    3  cosine/periodic         36.20045            1            4  #  H_ Zn4+2 O_2_M
    4  cosine/periodic         37.39156            1            4  #  H_ Zn4+2 N_2
    5  cosine/periodic         14.11273            1            4  #  H_ Zn4+2 H_
    6  cosine/periodic         10.90893            1            1  #  H_ H_ Zn4+2
    7  cosine/periodic         11.23300            1            1  #  Zn4+2 H_ Zn4+2
    8  cosine/periodic         12.17707            1            1  #  H_ H_ H_
    9  cosine/periodic        179.74893           -1            3  #  C_R C_R N_2
    10 cosine/periodic        111.29751           -1            3  #  C_R C_R C_R
    11 cosine/periodic         57.28902           -1            3  #  C_R C_R H_
    12 cosine/periodic        102.18328           -1            3  #  C_R C_R C_R
    13 cosine/periodic        135.76992           -1            3  #  C_R C_R O_3
    14 fourier                 75.49653      0.34375      0.37500      0.28125  #  H_ C_3 H_
    15 fourier                165.75867      0.34375      0.37500      0.28125  #  H_ C_3 O_3
    16 cosine/periodic        206.77843           -1            3  #  O_2_M C_R O_2_M
    17 cosine/periodic        137.71425           -1            3  #  C_R C_R O_2_M
    18 fourier                 84.89470      0.36401      0.41847      0.28800  #  C_R N_2 Zn4+2
    19 fourier                320.94891      0.30023      0.26733      0.26675  #  C_3 O_3 C_R
    20 cosine/periodic         37.72922           -1            3  #  C_R O_2_M Zn4+2

Dihedral Coeffs

    1       6.73711           -1            2  #  X C_R C_R X bond order=1.5
    2      27.96100           -1            2  #  X C_R N_2 X bond order=3.0
    3       1.25000           -1            2  #  X C_R C_R X bond order=1.0
    4       0.23717           -1            2  #  X C_R O_3 X bond order=1.0
    5       0.03255            1            3  #  X C_3 O_3 X bond order=1.0
    6       6.73711           -1            2  #  X C_R O_2_M X bond order=1.5

Improper Coeffs

    1       2.00000      1.00000     -1.00000      0.00000            1  #  C_R X X X O_2 present=False
    2      16.66667      1.00000     -1.00000      0.00000            1  #  C_R X X X O_2 present=True

Atoms # a, b, c, alpha, beta, gamma: 34.9152046987, 20.6006176489, 20.6006243932, 85.5641876216, 92.8814745496, 91.6859649672 $$$atoms$$$

    1 1     7      0.00000     14.14496      5.21052      6.52496   #   Zn1   0.41853015   0.22889003   0.31805648
    2 1     7      0.00000     -0.38690      5.29677      6.66575   #   Zn2   0.00259295   0.23255780   0.32491934
    3 1     3      0.00000      8.88463      5.37032      7.63618   #    H1   0.26953989   0.23253760   0.37222246
    4 1     3      0.00000      4.87343      4.37925      6.01877   #    H2   0.15158587   0.19039456   0.29338288
    5 1     3      0.00000      3.33269      5.77370      9.78463   #    H3   0.11383592   0.24417559   0.47694803
    6 1     3      0.00000      6.08660      4.73536      0.54214   #    H4   0.17906615   0.22795785   0.02642651
    7 1     3      0.00000      7.45879      4.68124      9.46527   #    H5   0.23064880   0.19230410   0.46138092
    8 1     3      0.00000      6.29927      2.43670      5.80221   #    H6   0.19048622   0.09685945   0.28282656
    9 1     3      0.00000      8.18926      1.62731      4.45157   #    H7   0.24206880   0.06255169   0.21699006
   10 1     3      0.00000     10.42537      2.64821      4.68384   #    H8   0.30729448   0.11127003   0.22831217
   11 1     3      0.00000     15.43321      4.69711      7.09495   #    H9   0.45578126   0.20184749   0.34584045
   12 1     3      0.00000     16.39026      2.27388      4.77910   #   H10   0.47794987   0.09273909   0.23295536
   13 1     3      0.00000     16.21857      8.28255      4.76559   #   H11   0.47807932   0.38458955   0.23229669
   14 1     3      0.00000     14.82176     10.38306      8.25601   #   H12   0.44466645   0.47367874   0.40243604
   15 1     3      0.00000     15.40189      5.79898      7.09201   #   H13   0.45580923   0.25536914   0.34569735
   16 1     3      0.00000     16.35411      1.81460      2.35875   #   H14   0.47318361   0.07939308   0.11497633
   17 1     3      0.00000      0.21560      0.90632      1.53001   #   H15   0.00905264   0.03835093   0.07457992
   18 1     3      0.00000      0.59705      1.86465      3.00916   #   H16   0.02282911   0.07941641   0.14668012
   19 1     3      0.00000     16.13852      5.03399      6.08542   #   H17   0.47487121   0.22194425   0.29663151
   20 1     3      0.00000     13.93042      5.67237      3.46475   #   H18   0.40854709   0.26264528   0.16888814
   21 1     3      0.00000     13.61463      6.13340      9.44986   #   H19   0.40816007   0.26288290   0.46062991
   22 1     3      0.00000      0.08090      4.27166      1.59619   #   H20   0.00812320   0.20153781   0.07780563
   23 1     3      0.00000     16.08015      5.11870      7.18294   #   H21   0.47478714   0.22199562   0.35012973
   24 1     3      0.00000     11.53776      5.52733      2.89510   #   H22   0.33911025   0.25771004   0.14112065
   25 1     3      0.00000     10.73030      6.72232      1.81262   #   H23   0.31549569   0.31974903   0.08835536
   26 1     3      0.00000     12.15090      7.23949      2.79556   #   H24   0.35797700   0.34122667   0.13626853
   27 1     2      0.00000     11.10138      4.67055      6.31983   #    C1   0.33062086   0.20342667   0.30805781
   28 1     2      0.00000      9.79904      4.07213      6.18442   #    C2   0.29262926   0.17486642   0.30145726
   29 1     2      0.00000      8.72638      4.54412      6.95268   #    C3   0.26336669   0.19494447   0.33890562
   30 1     2      0.00000      7.44818      3.96798      6.82357   #    C4   0.22609413   0.16744326   0.33261238
   31 1     2      0.00000      6.30987      4.46652      7.63718   #    C5   0.19503622   0.18864271   0.37227161
   32 1     2      0.00000      5.03168      4.61309      7.06524   #    C6   0.15776113   0.19787725   0.34439255
   33 1     2      0.00000      3.95902      5.08327      7.83461   #    C7   0.12849856   0.21786334   0.38189487
   34 1     2      0.00000      2.65668      5.23434      7.23994   #    C8   0.09050433   0.22740083   0.35290818
   35 1     2      0.00000      4.15562      5.40979      9.18113   #    C9   0.13626503   0.22873644   0.44753052
   36 1     2      0.00000      5.41980      5.26753      9.75704   #   C10   0.17314777   0.21969637   0.47560338
   37 1     2      0.00000      6.49197      4.79956      8.99238   #   C11   0.20240454   0.19980030   0.43832991
   38 1     2      0.00000      7.26609      2.91176      5.91151   #   C12   0.21872842   0.11952534   0.28815433
   39 1     2      0.00000      8.33826      2.44295      5.14736   #   C13   0.24798514   0.09958661   0.25090597
   40 1     2      0.00000      9.60243      3.02067      5.28210   #   C14   0.28486533   0.12714400   0.25747417
   41 1     2      0.00000     15.72360      1.32743      6.59498   #   C15   0.46056700   0.04005527   0.32146977
   42 1     2      0.00000     16.22534      1.33133      5.28284   #   C16   0.47312777   0.04510122   0.25750984
   43 1     2      0.00000     16.21039     10.41856      4.62260   #   C17   0.47944809   0.48885057   0.22532664
   44 1     2      0.00000     15.99296      9.20613      5.28438   #   C18   0.47311299   0.42752155   0.25758530
   45 1     2      0.00000     15.49218      9.17988      6.59574   #   C19   0.46055978   0.42139302   0.32150665
   46 1     2      0.00000     15.20841     10.39435      7.24421   #   C20   0.45435209   0.47797151   0.35311635
   47 1     1      0.00000     17.28605      1.23183      2.51718   #   C21   0.49960274   0.05050535   0.12269907
   48 1     2      0.00000     15.80497      4.95567      2.68371   #   C22   0.46055255   0.23073078   0.13081627
   49 1     2      0.00000     14.48463      5.42192      2.57062   #   C23   0.42297373   0.25379201   0.12530377
   50 1     2      0.00000     13.88114      5.56461      1.30764   #   C24   0.40406491   0.26539594   0.06374033
   51 1     2      0.00000     14.60794      5.23755      0.15872   #   C25   0.42301806   0.25376484   0.00773655
   52 1     2      0.00000     15.92861      4.76988      0.24947   #   C26   0.46057423   0.23071752   0.01216016
   53 1     2      0.00000     16.51996      4.63181      1.51723   #   C27   0.47914606   0.21932036   0.07395674
   54 1     1      0.00000     11.70711      6.39648      2.22493   #   C28   0.34376744   0.30239933   0.10845328
   55 1     2      0.00000     15.48686      5.38572      9.02823   #   C29   0.46056932   0.22813333   0.44007767
   56 1     2      0.00000     15.72883      5.12159      4.16248   #   C30   0.46055470   0.23331536   0.20289829
   57 1     2      0.00000     15.53853      7.69155      6.54251   #   C31   0.46055902   0.34931208   0.31891210
   58 1     2      0.00000     15.67716      2.81574      6.64820   #   C32   0.46056497   0.11213582   0.32406389
   59 1     4      0.00000     12.14823      5.15165      6.42876   #    N1   0.36115969   0.22638737   0.31336755
   60 1     4      0.00000      1.60983      5.35574      6.76183   #    N2   0.05996342   0.23506578   0.32960296
   61 1     6      0.00000     16.71252     10.37817      3.31285   #    O1   0.49198594   0.49173646   0.16148372
   62 1     6      0.00000     12.56545      6.02665      1.15063   #    O2   0.36655486   0.28841508   0.05608702
   63 1     5      0.00000     16.81358      5.20995      4.71219   #    O3   0.49245681   0.23557183   0.22969409
   64 1     5      0.00000     16.62268      5.36281      8.58537   #    O4   0.49246892   0.22866011   0.41849043
   65 1     5      0.00000     16.66439      7.22480      6.57813   #    O5   0.49246018   0.32651347   0.32064834
   66 1     5      0.00000     16.77187      3.34796      6.71943   #    O6   0.49246553   0.13771848   0.32753613
   67 1     5      0.00000     14.44379      7.15933      6.47127   #    O7   0.42865754   0.32372935   0.31543969
   68 1     5      0.00000     14.40208      5.29736      8.47851   #    O8   0.42866629   0.22587677   0.41328175
   69 1     5      0.00000     14.59298      5.14449      4.60532   #    O9   0.42865418   0.23278847   0.22448462
   70 1     5      0.00000     14.55127      3.28250      6.61256   #   O10   0.42866289   0.13493511   0.32232671
   71 1     7      0.00000     13.62716      5.99227     16.78250   #   Zn1   0.41853015   0.22889003   0.81805648
   72 1     7      0.00000     -0.90470      6.07853     16.92329   #   Zn2   0.00259295   0.23255780   0.82491934
   73 1     3      0.00000      8.36683      6.15207     17.89372   #    H1   0.26953989   0.23253760   0.87222246
   74 1     3      0.00000      4.35563      5.16101     16.27632   #    H2   0.15158587   0.19039456   0.79338288
   75 1     3      0.00000      2.81489      6.55545     20.04217   #    H3   0.11383592   0.24417559   0.97694803
   76 1     3      0.00000      5.56880      5.51711     10.79968   #    H4   0.17906615   0.22795785   0.52642651
   77 1     3      0.00000      6.94099      5.46299     19.72281   #    H5   0.23064880   0.19230410   0.96138092
   78 1     3      0.00000      5.78147      3.21845     16.05975   #    H6   0.19048622   0.09685945   0.78282656
   79 1     3      0.00000      7.67146      2.40906     14.70911   #    H7   0.24206880   0.06255169   0.71699006
   80 1     3      0.00000      9.90757      3.42996     14.94139   #    H8   0.30729448   0.11127003   0.72831217
   81 1     3      0.00000     14.91541      5.47886     17.35249   #    H9   0.45578126   0.20184749   0.84584045
   82 1     3      0.00000     15.87246      3.05564     15.03664   #   H10   0.47794987   0.09273909   0.73295536
   83 1     3      0.00000     15.70078      9.06430     15.02313   #   H11   0.47807932   0.38458955   0.73229669
   84 1     3      0.00000     14.30397     11.16481     18.51355   #   H12   0.44466645   0.47367874   0.90243604
   85 1     3      0.00000     14.88409      6.58074     17.34955   #   H13   0.45580923   0.25536914   0.84569735
   86 1     3      0.00000     15.83632      2.59636     12.61629   #   H14   0.47318361   0.07939308   0.61497633
   87 1     3      0.00000     -0.30220      1.68807     11.78756   #   H15   0.00905264   0.03835093   0.57457992
   88 1     3      0.00000      0.07925      2.64641     13.26670   #   H16   0.02282911   0.07941641   0.64668012
   89 1     3      0.00000     15.62072      5.81575     16.34296   #   H17   0.47487121   0.22194425   0.79663151
   90 1     3      0.00000     13.41262      6.45412     13.72230   #   H18   0.40854709   0.26264528   0.66888814
   91 1     3      0.00000     13.09684      6.91516     19.70740   #   H19   0.40816007   0.26288290   0.96062991
   92 1     3      0.00000     -0.43690      5.05341     11.85373   #   H20   0.00812320   0.20153781   0.57780563
   93 1     3      0.00000     15.56235      5.90045     17.44048   #   H21   0.47478714   0.22199562   0.85012973
   94 1     3      0.00000     11.01997      6.30908     13.15264   #   H22   0.33911025   0.25771004   0.64112065
   95 1     3      0.00000     10.21250      7.50407     12.07016   #   H23   0.31549569   0.31974903   0.58835536
   96 1     3      0.00000     11.63311      8.02125     13.05310   #   H24   0.35797700   0.34122667   0.63626853
   97 1     2      0.00000     10.58358      5.45230     16.57737   #    C1   0.33062086   0.20342667   0.80805781
   98 1     2      0.00000      9.28124      4.85388     16.44196   #    C2   0.29262926   0.17486642   0.80145726
   99 1     2      0.00000      8.20858      5.32587     17.21022   #    C3   0.26336669   0.19494447   0.83890562
  100 1     2      0.00000      6.93039      4.74974     17.08111   #    C4   0.22609413   0.16744326   0.83261238
  101 1     2      0.00000      5.79207      5.24828     17.89473   #    C5   0.19503622   0.18864271   0.87227161
  102 1     2      0.00000      4.51388      5.39484     17.32279   #    C6   0.15776113   0.19787725   0.84439255
  103 1     2      0.00000      3.44122      5.86502     18.09215   #    C7   0.12849856   0.21786334   0.88189487
  104 1     2      0.00000      2.13888      6.01610     17.49748   #    C8   0.09050433   0.22740083   0.85290818
  105 1     2      0.00000      3.63783      6.19154     19.43867   #    C9   0.13626503   0.22873644   0.94753052
  106 1     2      0.00000      4.90200      6.04928     20.01459   #   C10   0.17314777   0.21969637   0.97560338
  107 1     2      0.00000      5.97417      5.58131     19.24992   #   C11   0.20240454   0.19980030   0.93832991
  108 1     2      0.00000      6.74830      3.69351     16.16905   #   C12   0.21872842   0.11952534   0.78815433
  109 1     2      0.00000      7.82046      3.22470     15.40490   #   C13   0.24798514   0.09958661   0.75090597
  110 1     2      0.00000      9.08463      3.80243     15.53965   #   C14   0.28486533   0.12714400   0.75747417
  111 1     2      0.00000     15.20580      2.10918     16.85252   #   C15   0.46056700   0.04005527   0.82146977
  112 1     2      0.00000     15.70754      2.11308     15.54038   #   C16   0.47312777   0.04510122   0.75750984
  113 1     2      0.00000     15.69259     11.20032     14.88014   #   C17   0.47944809   0.48885057   0.72532664
  114 1     2      0.00000     15.47517      9.98788     15.54193   #   C18   0.47311299   0.42752155   0.75758530
  115 1     2      0.00000     14.97439      9.96163     16.85328   #   C19   0.46055978   0.42139302   0.82150665
  116 1     2      0.00000     14.69062     11.17610     17.50175   #   C20   0.45435209   0.47797151   0.85311635
  117 1     1      0.00000     16.76826      2.01358     12.77472   #   C21   0.49960274   0.05050535   0.62269907
  118 1     2      0.00000     15.28717      5.73742     12.94125   #   C22   0.46055255   0.23073078   0.63081627
  119 1     2      0.00000     13.96683      6.20368     12.82816   #   C23   0.42297373   0.25379201   0.62530377
  120 1     2      0.00000     13.36335      6.34636     11.56518   #   C24   0.40406491   0.26539594   0.56374033
  121 1     2      0.00000     14.09015      6.01930     10.41626   #   C25   0.42301806   0.25376484   0.50773655
  122 1     2      0.00000     15.41082      5.55163     10.50701   #   C26   0.46057423   0.23071752   0.51216016
  123 1     2      0.00000     16.00217      5.41356     11.77477   #   C27   0.47914606   0.21932036   0.57395674
  124 1     1      0.00000     11.18932      7.17824     12.48247   #   C28   0.34376744   0.30239933   0.60845328
  125 1     2      0.00000     14.96906      6.16747     19.28577   #   C29   0.46056932   0.22813333   0.94007767
  126 1     2      0.00000     15.21103      5.90335     14.42002   #   C30   0.46055470   0.23331536   0.70289829
  127 1     2      0.00000     15.02073      8.47330     16.80005   #   C31   0.46055902   0.34931208   0.81891210
  128 1     2      0.00000     15.15936      3.59750     16.90574   #   C32   0.46056497   0.11213582   0.82406389
  129 1     4      0.00000     11.63043      5.93341     16.68630   #    N1   0.36115969   0.22638737   0.81336755
  130 1     4      0.00000      1.09203      6.13749     17.01938   #    N2   0.05996342   0.23506578   0.82960296
  131 1     6      0.00000     16.19472     11.15992     13.57039   #    O1   0.49198594   0.49173646   0.66148372
  132 1     6      0.00000     12.04765      6.80840     11.40817   #    O2   0.36655486   0.28841508   0.55608702
  133 1     5      0.00000     16.29578      5.99171     14.96974   #    O3   0.49245681   0.23557183   0.72969409
  134 1     5      0.00000     16.10488      6.14457     18.84291   #    O4   0.49246892   0.22866011   0.91849043
  135 1     5      0.00000     16.14659      8.00656     16.83567   #    O5   0.49246018   0.32651347   0.82064834
  136 1     5      0.00000     16.25407      4.12972     16.97697   #    O6   0.49246553   0.13771848   0.82753613
  137 1     5      0.00000     13.92599      7.94108     16.72881   #    O7   0.42865754   0.32372935   0.81543969
  138 1     5      0.00000     13.88428      6.07911     18.73605   #    O8   0.42866629   0.22587677   0.91328175
  139 1     5      0.00000     14.07518      5.92625     14.86286   #    O9   0.42865418   0.23278847   0.72448462
  140 1     5      0.00000     14.03347      4.06426     16.87010   #   O10   0.42866289   0.13493511   0.82232671
  141 1     7      0.00000     13.84191     15.50637      6.52496   #   Zn1   0.41853015   0.72889003   0.31805648
  142 1     7      0.00000     -0.68995     15.59262      6.66575   #   Zn2   0.00259295   0.73255780   0.32491934
  143 1     3      0.00000      8.58158     15.66617      7.63618   #    H1   0.26953989   0.73253760   0.37222246
  144 1     3      0.00000      4.57038     14.67510      6.01877   #    H2   0.15158587   0.69039456   0.29338288
  145 1     3      0.00000      3.02964     16.06955      9.78463   #    H3   0.11383592   0.74417559   0.47694803
  146 1     3      0.00000      5.78355     15.03121      0.54214   #    H4   0.17906615   0.72795785   0.02642651
  147 1     3      0.00000      7.15574     14.97709      9.46527   #    H5   0.23064880   0.69230410   0.46138092
  148 1     3      0.00000      5.99622     12.73255      5.80221   #    H6   0.19048622   0.59685945   0.28282656
  149 1     3      0.00000      7.88621     11.92316      4.45157   #    H7   0.24206880   0.56255169   0.21699006
  150 1     3      0.00000     10.12232     12.94406      4.68384   #    H8   0.30729448   0.61127003   0.22831217
  151 1     3      0.00000     15.13016     14.99296      7.09495   #    H9   0.45578126   0.70184749   0.34584045
  152 1     3      0.00000     16.08721     12.56973      4.77910   #   H10   0.47794987   0.59273909   0.23295536
  153 1     3      0.00000     15.91552     18.57840      4.76559   #   H11   0.47807932   0.88458955   0.23229669
  154 1     3      0.00000     14.51871     20.67891      8.25601   #   H12   0.44466645   0.97367874   0.40243604
  155 1     3      0.00000     15.09884     16.09483      7.09201   #   H13   0.45580923   0.75536914   0.34569735
  156 1     3      0.00000     16.05106     12.11045      2.35875   #   H14   0.47318361   0.57939308   0.11497633
  157 1     3      0.00000     -0.08745     11.20217      1.53001   #   H15   0.00905264   0.53835093   0.07457992
  158 1     3      0.00000      0.29400     12.16050      3.00916   #   H16   0.02282911   0.57941641   0.14668012
  159 1     3      0.00000     15.83547     15.32984      6.08542   #   H17   0.47487121   0.72194425   0.29663151
  160 1     3      0.00000     13.62737     15.96822      3.46475   #   H18   0.40854709   0.76264528   0.16888814
  161 1     3      0.00000     13.31158     16.42925      9.44986   #   H19   0.40816007   0.76288290   0.46062991
  162 1     3      0.00000     -0.22215     14.56751      1.59619   #   H20   0.00812320   0.70153781   0.07780563
  163 1     3      0.00000     15.77710     15.41455      7.18294   #   H21   0.47478714   0.72199562   0.35012973
  164 1     3      0.00000     11.23471     15.82318      2.89510   #   H22   0.33911025   0.75771004   0.14112065
  165 1     3      0.00000     10.42725     17.01817      1.81262   #   H23   0.31549569   0.81974903   0.08835536
  166 1     3      0.00000     11.84785     17.53534      2.79556   #   H24   0.35797700   0.84122667   0.13626853
  167 1     2      0.00000     10.79833     14.96640      6.31983   #    C1   0.33062086   0.70342667   0.30805781
  168 1     2      0.00000      9.49599     14.36798      6.18442   #    C2   0.29262926   0.67486642   0.30145726
  169 1     2      0.00000      8.42333     14.83997      6.95268   #    C3   0.26336669   0.69494447   0.33890562
  170 1     2      0.00000      7.14513     14.26383      6.82357   #    C4   0.22609413   0.66744326   0.33261238
  171 1     2      0.00000      6.00682     14.76237      7.63718   #    C5   0.19503622   0.68864271   0.37227161
  172 1     2      0.00000      4.72863     14.90894      7.06524   #    C6   0.15776113   0.69787725   0.34439255
  173 1     2      0.00000      3.65597     15.37912      7.83461   #    C7   0.12849856   0.71786334   0.38189487
  174 1     2      0.00000      2.35363     15.53019      7.23994   #    C8   0.09050433   0.72740083   0.35290818
  175 1     2      0.00000      3.85258     15.70564      9.18113   #    C9   0.13626503   0.72873644   0.44753052
  176 1     2      0.00000      5.11675     15.56338      9.75704   #   C10   0.17314777   0.71969637   0.47560338
  177 1     2      0.00000      6.18892     15.09541      8.99238   #   C11   0.20240454   0.69980030   0.43832991
  178 1     2      0.00000      6.96304     13.20761      5.91151   #   C12   0.21872842   0.61952534   0.28815433
  179 1     2      0.00000      8.03521     12.73880      5.14736   #   C13   0.24798514   0.59958661   0.25090597
  180 1     2      0.00000      9.29938     13.31652      5.28210   #   C14   0.28486533   0.62714400   0.25747417
  181 1     2      0.00000     15.42055     11.62328      6.59498   #   C15   0.46056700   0.54005527   0.32146977
  182 1     2      0.00000     15.92229     11.62718      5.28284   #   C16   0.47312777   0.54510122   0.25750984
  183 1     2      0.00000     15.90734     20.71441      4.62260   #   C17   0.47944809   0.98885057   0.22532664
  184 1     2      0.00000     15.68991     19.50198      5.28438   #   C18   0.47311299   0.92752155   0.25758530
  185 1     2      0.00000     15.18913     19.47573      6.59574   #   C19   0.46055978   0.92139302   0.32150665
  186 1     2      0.00000     14.90536     20.69020      7.24421   #   C20   0.45435209   0.97797151   0.35311635
  187 1     1      0.00000     16.98301     11.52768      2.51718   #   C21   0.49960274   0.55050535   0.12269907
  188 1     2      0.00000     15.50192     15.25152      2.68371   #   C22   0.46055255   0.73073078   0.13081627
  189 1     2      0.00000     14.18158     15.71777      2.57062   #   C23   0.42297373   0.75379201   0.12530377
  190 1     2      0.00000     13.57809     15.86046      1.30764   #   C24   0.40406491   0.76539594   0.06374033
  191 1     2      0.00000     14.30489     15.53340      0.15872   #   C25   0.42301806   0.75376484   0.00773655
  192 1     2      0.00000     15.62556     15.06573      0.24947   #   C26   0.46057423   0.73071752   0.01216016
  193 1     2      0.00000     16.21691     14.92766      1.51723   #   C27   0.47914606   0.71932036   0.07395674
  194 1     1      0.00000     11.40406     16.69233      2.22493   #   C28   0.34376744   0.80239933   0.10845328
  195 1     2      0.00000     15.18381     15.68157      9.02823   #   C29   0.46056932   0.72813333   0.44007767
  196 1     2      0.00000     15.42578     15.41744      4.16248   #   C30   0.46055470   0.73331536   0.20289829
  197 1     2      0.00000     15.23548     17.98740      6.54251   #   C31   0.46055902   0.84931208   0.31891210
  198 1     2      0.00000     15.37411     13.11159      6.64820   #   C32   0.46056497   0.61213582   0.32406389
  199 1     4      0.00000     11.84518     15.44750      6.42876   #    N1   0.36115969   0.72638737   0.31336755
  200 1     4      0.00000      1.30678     15.65159      6.76183   #    N2   0.05996342   0.73506578   0.32960296
  201 1     6      0.00000     16.40947     20.67402      3.31285   #    O1   0.49198594   0.99173646   0.16148372
  202 1     6      0.00000     12.26240     16.32250      1.15063   #    O2   0.36655486   0.78841508   0.05608702
  203 1     5      0.00000     16.51053     15.50580      4.71219   #    O3   0.49245681   0.73557183   0.22969409
  204 1     5      0.00000     16.31963     15.65866      8.58537   #    O4   0.49246892   0.72866011   0.41849043
  205 1     5      0.00000     16.36134     17.52065      6.57813   #    O5   0.49246018   0.82651347   0.32064834
  206 1     5      0.00000     16.46882     13.64381      6.71943   #    O6   0.49246553   0.63771848   0.32753613
  207 1     5      0.00000     14.14074     17.45518      6.47127   #    O7   0.42865754   0.82372935   0.31543969
  208 1     5      0.00000     14.09903     15.59320      8.47851   #    O8   0.42866629   0.72587677   0.41328175
  209 1     5      0.00000     14.28993     15.44034      4.60532   #    O9   0.42865418   0.73278847   0.22448462
  210 1     5      0.00000     14.24822     13.57835      6.61256   #   O10   0.42866289   0.63493511   0.32232671
  211 1     7      0.00000     13.32411     16.28812     16.78250   #   Zn1   0.41853015   0.72889003   0.81805648
  212 1     7      0.00000     -1.20775     16.37438     16.92329   #   Zn2   0.00259295   0.73255780   0.82491934
  213 1     3      0.00000      8.06378     16.44792     17.89372   #    H1   0.26953989   0.73253760   0.87222246
  214 1     3      0.00000      4.05258     15.45686     16.27632   #    H2   0.15158587   0.69039456   0.79338288
  215 1     3      0.00000      2.51184     16.85130     20.04217   #    H3   0.11383592   0.74417559   0.97694803
  216 1     3      0.00000      5.26575     15.81296     10.79968   #    H4   0.17906615   0.72795785   0.52642651
  217 1     3      0.00000      6.63795     15.75884     19.72281   #    H5   0.23064880   0.69230410   0.96138092
  218 1     3      0.00000      5.47842     13.51430     16.05975   #    H6   0.19048622   0.59685945   0.78282656
  219 1     3      0.00000      7.36841     12.70491     14.70911   #    H7   0.24206880   0.56255169   0.71699006
  220 1     3      0.00000      9.60452     13.72581     14.94139   #    H8   0.30729448   0.61127003   0.72831217
  221 1     3      0.00000     14.61236     15.77471     17.35249   #    H9   0.45578126   0.70184749   0.84584045
  222 1     3      0.00000     15.56942     13.35149     15.03664   #   H10   0.47794987   0.59273909   0.73295536
  223 1     3      0.00000     15.39773     19.36015     15.02313   #   H11   0.47807932   0.88458955   0.73229669
  224 1     3      0.00000     14.00092     21.46066     18.51355   #   H12   0.44466645   0.97367874   0.90243604