Created by Ryther's code on 2025-07-29 22:46:51.877841, modified by xyan11@uic.edu. 

    400 atoms
    472 bonds
    896 angles
    896 dihedrals
    176 impropers

    7 atom types
    13 bond types
    26 angle types
    5 dihedral types
    2 improper types

0.00000000 27.71803669 xlo xhi
0.00000000 20.60455431 ylo yhi
0.00000000 21.29815437 zlo zhi
0.00060961 5.031e-05 1.65349784 xy xz yz 

Masses 

    1    12.0107  #   C
    2    1.00794  #   H
    3    14.0067  #   N
    4    15.9994  #   O
    5    15.9994  #   O
    6      65.38  #  Zn
    7      65.38  #  Zn

Pair Coeffs

    1       0.10500      3.43085  #  C_R C_R
    2       0.04400      2.57113  #  H_ H_
    3       0.06900      3.26069  #  N_2 N_2
    4       0.06000      3.11815  #  O_2_M O_2_M
    5       0.06000      3.11815  #  O_3_M O_3_M
    6       0.12400      2.46155  #  Zn4+2 Zn4+2
    7       0.06000      2.58361  #  Zn6f3 Zn6f3

Bond Coeffs

    1      54.94924      2.40433  #  O_2_M Zn6f3 bond order=0.5
    2      55.07699      2.48452  #  N_2 Zn6f3 bond order=0.5
    3     104.44141      2.12294  #  O_2_M Zn4+2 bond order=0.5
    4     103.61325      2.20128  #  N_2 Zn4+2 bond order=0.5
    5      48.90184      1.84943  #  H_ Zn4+2 bond order=0.5
    6     100.76218      2.14847  #  O_3_M Zn4+2 bond order=0.5
    7     357.44038      1.08142  #  C_R H_ bond order=1.0
    8     559.99521      0.99025  #  H_ O_3_M bond order=1.0
    9     931.53598      1.20133  #  C_R N_2 bond order=3.0
    10    462.65505      1.37926  #  C_R C_R bond order=1.5
    11    391.66951      1.45800  #  C_R C_R bond order=1.0
    12    714.55744      1.26901  #  C_R O_2_M bond order=1.5
    13    678.02790      1.29140  #  C_R O_3_M bond order=1.5

Angle Coeffs

    1  cosine/periodic         67.02484            1            4  #  O_2_M Zn6f3 O_2_M
    2  cosine/periodic         70.47472            1            4  #  N_2 Zn6f3 O_2_M
    3  cosine/periodic        101.82219            1            4  #  N_2 Zn4+2 O_2_M
    4  cosine/periodic         36.20045            1            4  #  H_ Zn4+2 O_2_M
    5  cosine/periodic         97.36576            1            4  #  O_2_M Zn4+2 O_2_M
    6  cosine/periodic         95.61832            1            4  #  O_2_M Zn4+2 O_3_M
    7  cosine/periodic         37.39156            1            4  #  H_ Zn4+2 N_2
    8  cosine/periodic        100.10309            1            4  #  N_2 Zn4+2 O_3_M
    9  cosine/periodic         35.40556            1            4  #  H_ Zn4+2 O_3_M
    10 cosine/periodic         14.11273            1            4  #  H_ Zn4+2 H_
    11 cosine/periodic         43.63912            1            1  #  O_3_M H_ Zn4+2
    12 cosine/periodic        179.74893           -1            3  #  C_R C_R N_2
    13 cosine/periodic        111.29751           -1            3  #  C_R C_R C_R
    14 cosine/periodic         57.28902           -1            3  #  C_R C_R H_
    15 cosine/periodic        102.18328           -1            3  #  C_R C_R C_R
    16 cosine/periodic        137.71425           -1            3  #  C_R C_R O_2_M
    17 cosine/periodic        206.77843           -1            3  #  O_2_M C_R O_2_M
    18 cosine/periodic        134.57449           -1            3  #  C_R C_R O_3_M
    19 cosine/periodic        201.38050           -1            3  #  O_2_M C_R O_3_M
    20 fourier                 48.02888      0.36401      0.41847      0.28800  #  C_R N_2 Zn6f3
    21 fourier                 84.89470      0.36401      0.41847      0.28800  #  C_R N_2 Zn4+2
    22 cosine/periodic         37.72922           -1            3  #  C_R O_2_M Zn4+2
    23 fourier                 41.31289      0.30023      0.26733      0.26675  #  H_ O_3_M Zn4+2
    24 fourier                 99.02913      0.30023      0.26733      0.26675  #  C_R O_3_M Zn4+2
    25 fourier                203.65891      0.30023      0.26733      0.26675  #  C_R O_3_M H_
    26 cosine/periodic         21.77718           -1            3  #  C_R O_2_M Zn6f3

Dihedral Coeffs

    1      27.96100           -1            2  #  X C_R N_2 X bond order=3.0
    2       6.73711           -1            2  #  X C_R C_R X bond order=1.5
    3       1.25000           -1            2  #  X C_R C_R X bond order=1.0
    4       6.73711           -1            2  #  X C_R O_2_M X bond order=1.5
    5       0.31957           -1            2  #  X C_R O_3_M X bond order=1.5

Improper Coeffs

    1       2.00000      1.00000     -1.00000      0.00000            1  #  C_R X X X O_2 present=False
    2      16.66667      1.00000     -1.00000      0.00000            1  #  C_R X X X O_2 present=True

Atoms # a, b, c, alpha, beta, gamma: 27.7180366906, 20.6045543238, 21.3622432009, 85.5607048212, 89.9998650647, 89.9983048296 $$$atoms$$$

    1 1     7      0.00000      0.73281      4.84799      6.58844   #   Zn1   0.02643265   0.21046276   0.30934325
    2 1     6      0.00000      3.66320      4.84795      6.58840   #   Zn2   0.13215424   0.21046091   0.30934114
    3 1     2      0.00000      9.12751      5.12724      6.18711   #    H1   0.32929312   0.22552783   0.29049960
    4 1     2      0.00000      6.98313      2.99239      9.25507   #    H2   0.25193137   0.11035766   0.43454776
    5 1     2      0.00000      9.12751      2.29053     10.26371   #    H3   0.32929615   0.07249369   0.48190628
    6 1     2      0.00000     11.27189      2.99240      9.25507   #    H4   0.40665950   0.11035790   0.43454795
    7 1     2      0.00000      0.58965      9.99916      7.34584   #    H6   0.02126236   0.45761046   0.34490486
    8 1     2      0.00000      3.97905      7.86346      5.74986   #    H8   0.14354620   0.35997212   0.26996999
    9 1     2      0.00000      5.07813      9.99903      5.23238   #    H9   0.18319591   0.46556730   0.24567279
   10 1     2      0.00000      3.97887      1.83238      5.74986   #   H10   0.14354621   0.06726594   0.26996992
   11 1     2      0.00000      3.16601      5.53870      5.79520   #   H11   0.11421608   0.24697397   0.27209860
   12 1     2      0.00000      0.49063      3.20996      2.58297   #   H12   0.01769719   0.14605634   0.12127690
   13 1     2      0.00000      0.49062      3.02104      0.14962   #   H13   0.01769718   0.14605637   0.00702488
   14 1     2      0.00000      3.90481      6.48548     10.59433   #   H14   0.14086934   0.27484147   0.49742965
   15 1     2      0.00000      3.90479      5.84759      2.37776   #   H15   0.14086932   0.27484145   0.11164183
   16 1     2      0.00000      3.16602      5.65285      7.26553   #   H16   0.11421623   0.24697375   0.34113408
   17 1     1      0.00000     11.58915      4.51807      7.06254   #    C1   0.41810377   0.19266440   0.33160320
   18 1     1      0.00000     10.34177      4.10766      7.65234   #    C2   0.37310181   0.17052345   0.35929610
   19 1     1      0.00000      9.12751      4.50776      7.07735   #    C3   0.32929381   0.19210828   0.33229891
   20 1     1      0.00000      7.91325      4.10765      7.65234   #    C4   0.28548666   0.17052332   0.35929604
   21 1     1      0.00000      6.66587      4.51807      7.06254   #    C5   0.24048383   0.19266435   0.33160315
   22 1     1      0.00000      7.91578      3.30732      8.80249   #    C6   0.28557877   0.12734714   0.41329845
   23 1     1      0.00000      9.12751      2.90875      9.37527   #    C7   0.32929550   0.10584539   0.44019175
   24 1     1      0.00000     10.33924      3.30732      8.80250   #    C8   0.37301144   0.12734727   0.41329854
   25 1     1      0.00000      2.19795      0.92004      6.58842   #    C9   0.07929576   0.01982794   0.30934234
   26 1     1      0.00000      1.56939      9.99913      6.88451   #   C10   0.05660903   0.45934724   0.32324464
   27 1     1      0.00000      2.19818      8.77590      6.58842   #   C11   0.07929574   0.40109605   0.30934235
   28 1     1      0.00000      3.46980      8.78854      5.98966   #   C12   0.12517272   0.40396550   0.28122915
   29 1     1      0.00000      4.09879      9.99905      5.69351   #   C13   0.14786381   0.46383116   0.26732413
   30 1     1      0.00000      3.46957      0.90733      5.98966   #   C14   0.12517271   0.02146697   0.28122911
   31 1     1      0.00000      2.19806      4.54394      2.67227   #   C15   0.07929577   0.21046199   0.12546972
   32 1     1      0.00000      1.24089      3.74923      2.01818   #   C16   0.04476446   0.17435708   0.09475848
   33 1     1      0.00000      1.24089      3.64103      0.62441   #   C17   0.04476443   0.17435712   0.02931741
   34 1     1      0.00000      2.19808      5.15201     10.50457   #   C18   0.07929573   0.21046202   0.49321494
   35 1     1      0.00000      3.15442      5.11935      0.50958   #   C19   0.11379854   0.24653701   0.02392590
   36 1     1      0.00000      3.15443      5.22756      1.90346   #   C20   0.11379853   0.24653700   0.08937205
   37 1     1      0.00000      2.19804      4.98378      9.02410   #   C21   0.07929467   0.20787581   0.42370323
   38 1     1      0.00000      2.19800      4.71217      4.15274   #   C22   0.07929338   0.21304869   0.19498122
   39 1     1      0.00000      2.19807      7.28685      6.53528   #   C23   0.07929327   0.32902826   0.30684719
   40 1     1      0.00000      2.19797      2.40909      6.64156   #   C24   0.07929474   0.09189545   0.31183729
   41 1     3      0.00000     12.59191      4.84802      6.58836   #    N1   0.45428068   0.21046451   0.30933964
   42 1     3      0.00000      5.66311      4.84802      6.58836   #    N2   0.20430623   0.21046450   0.30933961
   43 1     4      0.00000      3.31005      4.76856      4.64958   #    O1   0.11941337   0.21391327   0.21830911
   44 1     4      0.00000      3.31009      4.92735      8.52722   #    O2   0.11941493   0.20700933   0.40037356
   45 1     5      0.00000      3.31010      6.78711      6.51748   #    O3   0.11941325   0.30484147   0.30601148
   46 1     4      0.00000      3.31004      2.90880      6.65932   #    O4   0.11941500   0.11608114   0.31267114
   47 1     4      0.00000      1.08597      6.78714      6.51752   #    O5   0.03917185   0.30484254   0.30601324
   48 1     4      0.00000      1.08596      4.92739      8.52725   #    O6   0.03917353   0.20701118   0.40037529
   49 1     4      0.00000      1.08591      4.76860      4.64960   #    O7   0.03917197   0.21391510   0.21831009
   50 1     4      0.00000      1.08590      2.90884      6.65934   #    O8   0.03917361   0.11608296   0.31267217
   51 1     7      0.00000      0.73283      5.67474     17.23752   #   Zn1   0.02643265   0.21046276   0.80934325
   52 1     6      0.00000      3.66323      5.67470     17.23747   #   Zn2   0.13215424   0.21046091   0.80934114
   53 1     2      0.00000      9.12754      5.95399     16.83618   #    H1   0.32929312   0.22552783   0.79049960
   54 1     2      0.00000      6.98316      3.81914     19.90414   #    H2   0.25193137   0.11035766   0.93454776
   55 1     2      0.00000      9.12754      3.11728     20.91279   #    H3   0.32929615   0.07249369   0.98190628
   56 1     2      0.00000     11.27192      3.81915     19.90415   #    H4   0.40665950   0.11035790   0.93454795
   57 1     2      0.00000      0.58967     10.82591     17.99491   #    H6   0.02126236   0.45761046   0.84490486
   58 1     2      0.00000      3.97908      8.69021     16.39894   #    H8   0.14354620   0.35997212   0.76996999
   59 1     2      0.00000      5.07815     10.82578     15.88145   #    H9   0.18319591   0.46556730   0.74567279
   60 1     2      0.00000      3.97890      2.65913     16.39894   #   H10   0.14354621   0.06726594   0.76996992
   61 1     2      0.00000      3.16603      6.36545     16.44428   #   H11   0.11421608   0.24697397   0.77209860
   62 1     2      0.00000      0.49065      4.03671     13.23205   #   H12   0.01769719   0.14605634   0.62127690
   63 1     2      0.00000      0.49065      3.84779     10.79869   #   H13   0.01769718   0.14605637   0.50702488
   64 1     2      0.00000      3.90484      7.31223     21.24341   #   H14   0.14086934   0.27484147   0.99742965
   65 1     2      0.00000      3.90482      6.67433     13.02684   #   H15   0.14086932   0.27484145   0.61164183
   66 1     2      0.00000      3.16604      6.47960     17.91460   #   H16   0.11421623   0.24697375   0.84113408
   67 1     1      0.00000     11.58917      5.34482     17.71161   #    C1   0.41810377   0.19266440   0.83160320
   68 1     1      0.00000     10.34180      4.93440     18.30142   #    C2   0.37310181   0.17052345   0.85929610
   69 1     1      0.00000      9.12754      5.33451     17.72643   #    C3   0.32929381   0.19210828   0.83229891
   70 1     1      0.00000      7.91328      4.93440     18.30142   #    C4   0.28548666   0.17052332   0.85929604
   71 1     1      0.00000      6.66590      5.34482     17.71161   #    C5   0.24048383   0.19266435   0.83160315
   72 1     1      0.00000      7.91581      4.13407     19.45157   #    C6   0.28557877   0.12734714   0.91329845
   73 1     1      0.00000      9.12754      3.73550     20.02435   #    C7   0.32929550   0.10584539   0.94019175
   74 1     1      0.00000     10.33927      4.13407     19.45157   #    C8   0.37301144   0.12734727   0.91329854
   75 1     1      0.00000      2.19798      1.74679     17.23750   #    C9   0.07929576   0.01982794   0.80934234
   76 1     1      0.00000      1.56941     10.82588     17.53359   #   C10   0.05660903   0.45934724   0.82324464
   77 1     1      0.00000      2.19821      9.60265     17.23750   #   C11   0.07929574   0.40109605   0.80934235
   78 1     1      0.00000      3.46983      9.61529     16.63874   #   C12   0.12517272   0.40396550   0.78122915
   79 1     1      0.00000      4.09882     10.82580     16.34259   #   C13   0.14786381   0.46383116   0.76732413
   80 1     1      0.00000      3.46959      1.73408     16.63874   #   C14   0.12517271   0.02146697   0.78122911
   81 1     1      0.00000      2.19808      5.37069     13.32135   #   C15   0.07929577   0.21046199   0.62546972
   82 1     1      0.00000      1.24092      4.57598     12.66726   #   C16   0.04476446   0.17435708   0.59475848
   83 1     1      0.00000      1.24091      4.46778     11.27348   #   C17   0.04476443   0.17435712   0.52931741
   84 1     1      0.00000      2.19810      5.97875     21.15365   #   C18   0.07929573   0.21046202   0.99321494
   85 1     1      0.00000      3.15445      5.94610     11.15865   #   C19   0.11379854   0.24653701   0.52392590
   86 1     1      0.00000      3.15445      6.05431     12.55254   #   C20   0.11379853   0.24653700   0.58937205
   87 1     1      0.00000      2.19807      5.81053     19.67317   #   C21   0.07929467   0.20787581   0.92370323
   88 1     1      0.00000      2.19802      5.53892     14.80182   #   C22   0.07929338   0.21304869   0.69498122
   89 1     1      0.00000      2.19809      8.11360     17.18436   #   C23   0.07929327   0.32902826   0.80684719
   90 1     1      0.00000      2.19799      3.23584     17.29064   #   C24   0.07929474   0.09189545   0.81183729
   91 1     3      0.00000     12.59194      5.67477     17.23744   #    N1   0.45428068   0.21046451   0.80933964
   92 1     3      0.00000      5.66314      5.67477     17.23744   #    N2   0.20430623   0.21046450   0.80933961
   93 1     4      0.00000      3.31007      5.59531     15.29866   #    O1   0.11941337   0.21391327   0.71830911
   94 1     4      0.00000      3.31012      5.75410     19.17629   #    O2   0.11941493   0.20700933   0.90037356
   95 1     5      0.00000      3.31013      7.61386     17.16656   #    O3   0.11941325   0.30484147   0.80601148
   96 1     4      0.00000      3.31006      3.73555     17.30840   #    O4   0.11941500   0.11608114   0.81267114
   97 1     4      0.00000      1.08599      7.61389     17.16659   #    O5   0.03917185   0.30484254   0.80601324
   98 1     4      0.00000      1.08598      5.75414     19.17633   #    O6   0.03917353   0.20701118   0.90037529
   99 1     4      0.00000      1.08594      5.59535     15.29868   #    O7   0.03917197   0.21391510   0.71831009
  100 1     4      0.00000      1.08593      3.73559     17.30842   #    O8   0.03917361   0.11608296   0.81267217
  101 1     7      0.00000      0.73311     15.15027      6.58844   #   Zn1   0.02643265   0.71046276   0.30934325
  102 1     6      0.00000      3.66350     15.15023      6.58840   #   Zn2   0.13215424   0.71046091   0.30934114
  103 1     2      0.00000      9.12782     15.42952      6.18711   #    H1   0.32929312   0.72552783   0.29049960
  104 1     2      0.00000      6.98344     13.29467      9.25507   #    H2   0.25193137   0.61035766   0.43454776
  105 1     2      0.00000      9.12782     12.59281     10.26371   #    H3   0.32929615   0.57249369   0.48190628
  106 1     2      0.00000     11.27220     13.29468      9.25507   #    H4   0.40665950   0.61035790   0.43454795
  107 1     2      0.00000      0.58995     20.30144      7.34584   #    H6   0.02126236   0.95761046   0.34490486
  108 1     2      0.00000      3.97936     18.16574      5.74986   #    H8   0.14354620   0.85997212   0.26996999
  109 1     2      0.00000      5.07843     20.30130      5.23238   #    H9   0.18319591   0.96556730   0.24567279
  110 1     2      0.00000      3.97918     12.13466      5.74986   #   H10   0.14354621   0.56726594   0.26996992
  111 1     2      0.00000      3.16631     15.84098      5.79520   #   H11   0.11421608   0.74697397   0.27209860
  112 1     2      0.00000      0.49093     13.51223      2.58297   #   H12   0.01769719   0.64605634   0.12127690
  113 1     2      0.00000      0.49093     13.32332      0.14962   #   H13   0.01769718   0.64605637   0.00702488
  114 1     2      0.00000      3.90512     16.78776     10.59433   #   H14   0.14086934   0.77484147   0.49742965
  115 1     2      0.00000      3.90510     16.14986      2.37776   #   H15   0.14086932   0.77484145   0.11164183
  116 1     2      0.00000      3.16632     15.95513      7.26553   #   H16   0.11421623   0.74697375   0.34113408
  117 1     1      0.00000     11.58945     14.82035      7.06254   #    C1   0.41810377   0.69266440   0.33160320
  118 1     1      0.00000     10.34208     14.40993      7.65234   #    C2   0.37310181   0.67052345   0.35929610
  119 1     1      0.00000      9.12782     14.81004      7.07735   #    C3   0.32929381   0.69210828   0.33229891
  120 1     1      0.00000      7.91356     14.40993      7.65234   #    C4   0.28548666   0.67052332   0.35929604
  121 1     1      0.00000      6.66618     14.82035      7.06254   #    C5   0.24048383   0.69266435   0.33160315
  122 1     1      0.00000      7.91609     13.60960      8.80249   #    C6   0.28557877   0.62734714   0.41329845
  123 1     1      0.00000      9.12782     13.21103      9.37527   #    C7   0.32929550   0.60584539   0.44019175
  124 1     1      0.00000     10.33955     13.60960      8.80250   #    C8   0.37301144   0.62734727   0.41329854
  125 1     1      0.00000      2.19826     11.22232      6.58842   #    C9   0.07929576   0.51982794   0.30934234
  126 1     1      0.00000      1.56969     20.30141      6.88451   #   C10   0.05660903   0.95934724   0.32324464
  127 1     1      0.00000      2.19849     19.07818      6.58842   #   C11   0.07929574   0.90109605   0.30934235
  128 1     1      0.00000      3.47011     19.09082      5.98966   #   C12   0.12517272   0.90396550   0.28122915
  129 1     1      0.00000      4.09910     20.30133      5.69351   #   C13   0.14786381   0.96383116   0.26732413
  130 1     1      0.00000      3.46987     11.20961      5.98966   #   C14   0.12517271   0.52146697   0.28122911
  131 1     1      0.00000      2.19836     14.84622      2.67227   #   C15   0.07929577   0.71046199   0.12546972
  132 1     1      0.00000      1.24120     14.05151      2.01818   #   C16   0.04476446   0.67435708   0.09475848
  133 1     1      0.00000      1.24119     13.94330      0.62441   #   C17   0.04476443   0.67435712   0.02931741
  134 1     1      0.00000      2.19838     15.45428     10.50457   #   C18   0.07929573   0.71046202   0.49321494
  135 1     1      0.00000      3.15473     15.42162      0.50958   #   C19   0.11379854   0.74653701   0.02392590
  136 1     1      0.00000      3.15473     15.52984      1.90346   #   C20   0.11379853   0.74653700   0.08937205
  137 1     1      0.00000      2.19835     15.28606      9.02410   #   C21   0.07929467   0.70787581   0.42370323
  138 1     1      0.00000      2.19830     15.01445      4.15274   #   C22   0.07929338   0.71304869   0.19498122
  139 1     1      0.00000      2.19837     17.58913      6.53528   #   C23   0.07929327   0.82902826   0.30684719
  140 1     1      0.00000      2.19827     12.71136      6.64156   #   C24   0.07929474   0.59189545   0.31183729
  141 1     3      0.00000     12.59222     15.15030      6.58836   #    N1   0.45428068   0.71046451   0.30933964
  142 1     3      0.00000      5.66342     15.15030      6.58836   #    N2   0.20430623   0.71046450   0.30933961
  143 1     4      0.00000      3.31035     15.07084      4.64958   #    O1   0.11941337   0.71391327   0.21830911
  144 1     4      0.00000      3.31040     15.22963      8.52722   #    O2   0.11941493   0.70700933   0.40037356
  145 1     5      0.00000      3.31041     17.08939      6.51748   #    O3   0.11941325   0.80484147   0.30601148
  146 1     4      0.00000      3.31034     13.21108      6.65932   #    O4   0.11941500   0.61608114   0.31267114
  147 1     4      0.00000      1.08627     17.08941      6.51752   #    O5   0.03917185   0.80484254   0.30601324
  148 1     4      0.00000      1.08626     15.22967      8.52725   #    O6   0.03917353   0.70701118   0.40037529
  149 1     4      0.00000      1.08622     15.07088      4.64960   #    O7   0.03917197   0.71391510   0.21831009
  150 1     4      0.00000      1.08621     13.21112      6.65934   #    O8   0.03917361   0.61608296   0.31267217
  151 1     7      0.00000      0.73314     15.97702     17.23752   #   Zn1   0.02643265   0.71046276   0.80934325
  152 1     6      0.00000      3.66353     15.97697     17.23747   #   Zn2   0.13215424   0.71046091   0.80934114
  153 1     2      0.00000      9.12784     16.25627     16.83618   #    H1   0.32929312   0.72552783   0.79049960
  154 1     2      0.00000      6.98346     14.12142     19.90414   #    H2   0.25193137   0.61035766   0.93454776
  155 1     2      0.00000      9.12784     13.41956     20.91279   #    H3   0.32929615   0.57249369   0.98190628
  156 1     2      0.00000     11.27222     14.12143     19.90415   #    H4   0.40665950   0.61035790   0.93454795
  157 1     2      0.00000      0.58998     21.12819     17.99491   #    H6   0.02126236   0.95761046   0.84490486
  158 1     2      0.00000      3.97938     18.99249     16.39894   #    H8   0.14354620   0.85997212   0.76996999
  159 1     2      0.00000      5.07846     21.12805     15.88145   #    H9   0.18319591   0.96556730   0.74567279
  160 1     2      0.00000      3.97920     12.96141     16.39894   #   H10   0.14354621   0.56726594   0.76996992
  161 1     2      0.00000      3.16634     16.66773     16.44428   #   H11   0.11421608   0.74697397   0.77209860
  162 1     2      0.00000      0.49096     14.33898     13.23205   #   H12   0.01769719   0.64605634   0.62127690
  163 1     2      0.00000      0.49095     14.15007     10.79869   #   H13   0.01769718   0.64605637   0.50702488
  164 1     2      0.00000      3.90514     17.61451     21.24341   #   H14   0.14086934   0.77484147   0.99742965
  165 1     2      0.00000      3.90512     16.97661     13.02684   #   H15   0.14086932   0.77484145   0.61164183
  166 1     2      0.00000      3.16635     16.78187     17.91460   #   H16   0.11421623   0.74697375   0.84113408
  167 1     1      0.00000     11.58948     15.64710     17.71161   #    C1   0.41810377   0.69266440   0.83160320
  168 1     1      0.00000     10.34210     15.23668     18.30142   #    C2   0.37310181   0.67052345   0.85929610
  169 1     1      0.00000      9.12784     15.63679     17.72643   #    C3   0.32929381   0.69210828   0.83229891
  170 1     1      0.00000      7.91358     15.23668     18.30142   #    C4   0.28548666   0.67052332   0.85929604
  171 1     1      0.00000      6.66620     15.64709     17.71161   #    C5   0.24048383   0.69266435   0.83160315
  172 1     1      0.00000      7.91611     14.43635     19.45157   #    C6   0.28557877   0.62734714   0.91329845
  173 1     1      0.00000      9.12784     14.03778     20.02435   #    C7   0.32929550   0.60584539   0.94019175
  174 1     1      0.00000     10.33957     14.43635     19.45157   #    C8   0.37301144   0.62734727   0.91329854
  175 1     1      0.00000      2.19828     12.04907     17.23750   #    C9   0.07929576   0.51982794   0.80934234
  176 1     1      0.00000      1.56972     21.12816     17.53359   #   C10   0.05660903   0.95934724   0.82324464
  177 1     1      0.00000      2.19851     19.90493     17.23750   #   C11   0.07929574   0.90109605   0.80934235
  178 1     1      0.00000      3.47013     19.91757     16.63874   #   C12   0.12517272   0.90396550   0.78122915
  179 1     1      0.00000      4.09912     21.12808     16.34259   #   C13   0.14786381   0.96383116   0.76732413
  180 1     1      0.00000      3.46990     12.03636     16.63874   #   C14   0.12517271   0.52146697   0.78122911
  181 1     1      0.00000      2.19839     15.67297     13.32135   #   C15   0.07929577   0.71046199   0.62546972
  182 1     1      0.00000      1.24122     14.87826     12.66726   #   C16   0.04476446   0.67435708   0.59475848
  183 1     1      0.00000      1.24122     14.77005     11.27348   #   C17   0.04476443   0.67435712   0.52931741
  184 1     1      0.00000      2.19841     16.28103     21.15365   #   C18   0.07929573   0.71046202   0.99321494
  185 1     1      0.00000      3.15475     16.24837     11.15865   #   C19   0.11379854   0.74653701   0.52392590
  186 1     1      0.00000      3.15476     16.35659     12.55254   #   C20   0.11379853   0.74653700   0.58937205
  187 1     1      0.00000      2.19837     16.11281     19.67317   #   C21   0.07929467   0.70787581   0.92370323
  188 1     1      0.00000      2.19833     15.84120     14.80182   #   C22   0.07929338   0.71304869   0.69498122
  189 1     1      0.00000      2.19840     18.41588     17.18436   #   C23   0.07929327   0.82902826   0.80684719
  190 1     1      0.00000      2.19830     13.53811     17.29064   #   C24   0.07929474   0.59189545   0.81183729
  191 1     3      0.00000     12.59224     15.97705     17.23744   #    N1   0.45428068   0.71046451   0.80933964
  192 1     3      0.00000      5.66344     15.97705     17.23744   #    N2   0.20430623   0.71046450   0.80933961
  193 1     4      0.00000      3.31038     15.89759     15.29866   #    O1   0.11941337   0.71391327   0.71830911
  194 1     4      0.00000      3.31042     16.05638     19.17629   #    O2   0.11941493   0.70700933   0.90037356
  195 1     5      0.00000      3.31043     17.91614     17.16656   #    O3   0.11941325   0.80484147   0.80601148
  196 1     4      0.00000      3.31037     14.03783     17.30840   #    O4   0.11941500   0.61608114   0.81267114
  197 1     4      0.00000      1.08630     17.91616     17.16659   #    O5   0.03917185   0.80484254   0.80601324
  198 1     4      0.00000      1.08629     16.05642     19.17633   #    O6   0.03917353   0.70701118   0.90037529
  199 1     4      0.00000      1.08624     15.89763     15.29868   #    O7   0.03917197   0.71391510   0.71831009
  200 1     4      0.00000      1.08623     14.03787     17.30842   #    O8   0.03917361   0.61608296   0.81267217
  201 1     7      0.00000     14.59182      4.84799      6.58844   #   Zn1   0.52643265   0.21046276   0.30934325
  202 1     6      0.00000     17.52222      4.84795      6.58840   #   Zn2   0.63215424   0.21046091   0.30934114
  203 1     2      0.00000     22.98653      5.12724      6.18711   #    H1   0.82929312   0.22552783   0.29049960
  204 1     2      0.00000     20.84215      2.99239      9.25507   #    H2   0.75193137   0.11035766   0.43454776
  205 1     2      0.00000     22.98653      2.29053     10.26371   #    H3   0.82929615   0.07249369   0.48190628
  206 1     2      0.00000     25.13091      2.99240      9.25507   #    H4   0.90665950   0.11035790   0.43454795
  207 1     2      0.00000     14.44867      9.99916      7.34584   #    H6   0.52126236   0.45761046   0.34490486
  208 1     2      0.00000     17.83807      7.86346      5.74986   #    H8   0.64354620   0.35997212   0.26996999
  209 1     2      0.00000     18.93715      9.99903      5.23238   #    H9   0.68319591   0.46556730   0.24567279
  210 1     2      0.00000     17.83789      1.83238      5.74986   #   H10   0.64354621   0.06726594   0.26996992
  211 1     2      0.00000     17.02503      5.53870      5.79520   #   H11   0.61421608   0.24697397   0.27209860
  212 1     2      0.00000     14.34964      3.20996      2.58297   #   H12   0.51769719   0.14605634   0.12127690
  213 1     2      0.00000     14.34964      3.02104      0.14962   #   H13   0.51769718   0.14605637   0.00702488
  214 1     2      0.00000     17.76383      6.48548     10.59433   #   H14   0.64086934   0.27484147   0.49742965
  215 1     2      0.00000     17.76381      5.84759      2.37776   #   H15   0.64086932   0.27484145   0.11164183
  216 1     2      0.00000     17.02504      5.65285      7.26553   #   H16   0.61421623   0.24697375   0.34113408
  217 1     1      0.00000     25.44817      4.51807      7.06254   #    C1   0.91810377   0.19266440   0.33160320
  218 1     1      0.00000     24.20079      4.10766      7.65234   #    C2   0.87310181   0.17052345   0.35929610
  219 1     1      0.00000     22.98653      4.50776      7.07735   #    C3   0.82929381   0.19210828   0.33229891