Created by Ryther's code on 2025-08-05 19:07:12.295463, modified by xyan11@uic.edu. 

    544 atoms
    616 bonds
    1136 angles
    1272 dihedrals
    224 impropers

    11 atom types
    21 bond types
    38 angle types
    10 dihedral types
    4 improper types

0.00000000 38.5690375 xlo xhi
0.00000000 20.59568501 ylo yhi
0.00000000 20.53710262 zlo zhi
-0.0280876 0.04859724 1.59465824 xy xz yz 

Masses 

    1    12.0107  #   C
    2    12.0107  #   C
    3    12.0107  #   C
    4    1.00794  #   H
    5    14.0067  #   N
    6    14.0067  #   N
    7    14.0067  #   N
    8    15.9994  #   O
    9    15.9994  #   O
   10      65.38  #  Zn
   11      65.38  #  Zn

Pair Coeffs

    1       0.10500      3.43085  #  C_2 C_2
    2       0.10500      3.43085  #  C_3 C_3
    3       0.10500      3.43085  #  C_R C_R
    4       0.04400      2.57113  #  H_ H_
    5       0.06900      3.26069  #  N_2 N_2
    6       0.06900      3.26069  #  N_3 N_3
    7       0.06900      3.26069  #  N_R N_R
    8       0.06000      3.11815  #  O_1 O_1
    9       0.06000      3.11815  #  O_2_M O_2_M
    10      0.12400      2.46155  #  Zn4+2 Zn4+2
    11      0.06000      2.58361  #  Zn6f3 Zn6f3

Bond Coeffs

    1      54.94924      2.40433  #  O_2_M Zn6f3 bond order=0.5
    2      55.07699      2.48452  #  N_2 Zn6f3 bond order=0.5
    3      48.90184      1.84943  #  H_ Zn4+2 bond order=0.5
    4     104.44141      2.12294  #  O_2_M Zn4+2 bond order=0.5
    5     103.61325      2.20128  #  N_2 Zn4+2 bond order=0.5
    6     354.48390      1.08442  #  C_2 H_ bond order=1.0
    7     357.44038      1.08142  #  C_R H_ bond order=1.0
    8     331.06939      1.10940  #  C_3 H_ bond order=1.0
    9     527.90376      1.04442  #  H_ N_3 bond order=1.0
    10    931.53598      1.20133  #  C_R N_2 bond order=3.0
    11    462.65505      1.37926  #  C_R C_R bond order=1.5
    12    369.94394      1.48600  #  C_3 C_R bond order=1.0
    13    520.53955      1.32611  #  C_2 C_R bond order=2.0
    14    389.26171      1.46100  #  C_2 C_R bond order=1.0
    15    391.66951      1.45800  #  C_R C_R bond order=1.0
    16    349.79590      1.51400  #  C_3 C_3 bond order=1.0
    17    560.26893      1.42319  #  C_R N_3 bond order=1.0
    18    706.67500      1.27367  #  C_R O_1 bond order=1.5
    19    561.44721      1.42220  #  C_R N_R bond order=1.0
    20    714.55744      1.26901  #  C_R O_2_M bond order=1.5
    21    968.67061      1.26107  #  N_R O_1 bond order=1.5

Angle Coeffs

    1  cosine/periodic         67.02484            1            4  #  O_2_M Zn6f3 O_2_M
    2  cosine/periodic         70.47472            1            4  #  N_2 Zn6f3 O_2_M
    3  cosine/periodic         36.20045            1            4  #  H_ Zn4+2 O_2_M
    4  cosine/periodic         14.11273            1            4  #  H_ Zn4+2 H_
    5  cosine/periodic         37.39156            1            4  #  H_ Zn4+2 N_2
    6  cosine/periodic         97.36576            1            4  #  O_2_M Zn4+2 O_2_M
    7  cosine/periodic        101.82219            1            4  #  N_2 Zn4+2 O_2_M
    8  cosine/periodic        179.74893           -1            3  #  C_R C_R N_2
    9  cosine/periodic         99.13715           -1            3  #  C_3 C_R C_R
    10 cosine/periodic        117.92729           -1            3  #  C_2 C_R C_R
    11 cosine/periodic        104.61369           -1            3  #  C_2 C_R C_3
    12 cosine/periodic         61.30451           -1            3  #  C_R C_2 H_
    13 cosine/periodic         51.27132           -1            3  #  C_R C_2 H_
    14 cosine/periodic        107.57857           -1            3  #  C_R C_2 C_R
    15 cosine/periodic         51.42604           -1            3  #  C_2 C_R H_
    16 cosine/periodic         57.28902           -1            3  #  C_R C_R H_
    17 cosine/periodic        101.85214           -1            3  #  C_2 C_R C_R
    18 cosine/periodic        102.18328           -1            3  #  C_R C_R C_R
    19 cosine/periodic         91.54739           -1            3  #  C_3 C_R C_R
    20 cosine/periodic        111.29751           -1            3  #  C_R C_R C_R
    21 fourier                 75.49653      0.34375      0.37500      0.28125  #  H_ C_3 H_
    22 fourier                121.77380      0.34375      0.37500      0.28125  #  C_R C_3 H_
    23 fourier                117.31542      0.34375      0.37500      0.28125  #  C_3 C_3 H_
    24 fourier                220.22341      0.34375      0.37500      0.28125  #  C_3 C_3 C_R
    25 cosine/periodic        129.92907           -1            3  #  C_R C_R N_3
    26 cosine/periodic        137.04263           -1            3  #  C_R C_R O_1
    27 cosine/periodic        189.84281           -1            3  #  N_3 C_R O_1
    28 cosine/periodic        141.32633           -1            3  #  C_R C_R N_R
    29 cosine/periodic        137.71425           -1            3  #  C_R C_R O_2_M
    30 cosine/periodic        206.77843           -1            3  #  O_2_M C_R O_2_M
    31 fourier                 48.02888      0.36401      0.41847      0.28800  #  C_R N_2 Zn6f3
    32 fourier                 84.89470      0.36401      0.41847      0.28800  #  C_R N_2 Zn4+2
    33 fourier                 97.01717      0.31751      0.31322      0.27250  #  H_ N_3 H_
    34 fourier                150.57460      0.31751      0.31322      0.27250  #  C_R N_3 H_
    35 cosine/periodic        144.77301           -1            3  #  C_R N_R O_1
    36 cosine/periodic        210.67420           -1            3  #  O_1 N_R O_1
    37 cosine/periodic         37.72922           -1            3  #  C_R O_2_M Zn4+2
    38 cosine/periodic         21.77718           -1            3  #  C_R O_2_M Zn6f3

Dihedral Coeffs

    1      27.96100           -1            2  #  X C_R N_2 X bond order=3.0
    2       6.73711           -1            2  #  X C_R C_R X bond order=1.5
    3       0.16667           -1            6  #  X C_3 C_R X bond order=1.0
    4       4.87169           -1            2  #  X C_2 C_R X bond order=2.0
    5       1.25000           -1            2  #  X C_2 C_R X bond order=1.0
    6       1.25000           -1            2  #  X C_R C_R X bond order=1.0
    7       0.11772            1            3  #  X C_3 C_3 X bond order=1.0
    8       0.25000           -1            6  #  X C_R N_3 X bond order=1.0
    9       1.25000           -1            2  #  X C_R N_R X bond order=1.0
    10      6.73711           -1            2  #  X C_R O_2_M X bond order=1.5

Improper Coeffs

    1       2.00000      1.00000     -1.00000      0.00000            1  #  C_R X X X O_2 present=False
    2       2.00000      1.00000     -1.00000      0.00000            1  #  C_2 X X X O_2 present=False
    3      16.66667      1.00000     -1.00000      0.00000            1  #  C_R X X X O_2 present=True
    4       2.00000      1.00000     -1.00000      0.00000            1  #  N_R X X X O_2 present=False

Atoms # a, b, c, alpha, beta, gamma: 38.5690375011, 20.5957041613, 20.5989776548, 85.5602262347, 89.8648273039, 90.0781377229 $$$atoms$$$

    1 1     11     0.00000     14.59407      4.81906      5.79079   #   Zn1   0.37818751   0.21215205   0.28196736
    2 1     10     0.00000     17.52445      4.82416      5.78340   #   Zn2   0.45416573   0.21242778   0.28160748
    3 1     4      0.00000      9.83484      3.45069      4.23507   #    H1   0.25484368   0.15157778   0.20621557
    4 1     4      0.00000      7.33181      3.29930      4.36987   #    H2   0.18993236   0.14371872   0.21277910
    5 1     4      0.00000      5.47528      2.71298      5.74686   #    H3   0.14168815   0.11005934   0.27982838
    6 1     4      0.00000      3.02402      2.69888      5.74355   #    H4   0.07813257   0.10938725   0.27966707
    7 1     4      0.00000      2.98584      7.00579      5.79041   #    H5   0.07729194   0.31832753   0.28194861
    8 1     4      0.00000      5.43646      7.03584      5.76947   #    H6   0.14083284   0.31986578   0.28092900
    9 1     4      0.00000      7.30112      6.31961      7.37380   #    H7   0.18905073   0.27904145   0.35904749
   10 1     4      0.00000      8.00705      6.86052      5.80646   #    H8   0.20747341   0.31121373   0.28273046
   11 1     4      0.00000      9.14393      4.82470      7.81830   #    H9   0.23674902   0.20478202   0.38069166
   12 1     4      0.00000      9.86131      6.39259      7.29959   #   H10   0.25543761   0.28286476   0.35543416
   13 1     4      0.00000     15.80379      1.82116      3.85708   #   H12   0.40957044   0.07388260   0.18781047
   14 1     4      0.00000     15.82767      7.81907      3.85924   #   H13   0.41040145   0.36509612   0.18791552
   15 1     4      0.00000     16.28509      9.97080      7.54821   #   H14   0.42210100   0.45566355   0.36754007
   16 1     4      0.00000     14.89965      8.89572      0.48951   #   H16   0.38659439   0.43007579   0.02383556
   17 1     4      0.00000     14.51529      8.09707      2.04484   #   H17   0.37650097   0.38543473   0.09956829
   18 1     4      0.00000     16.55464      4.57682      5.25193   #   H18   0.42904622   0.20242221   0.25572880
   19 1     4      0.00000     14.25022      5.32266      2.74234   #   H19   0.36948541   0.24809687   0.13353124
   20 1     4      0.00000     14.26407      5.78746      8.72669   #   H20   0.36947730   0.24810305   0.42492323
   21 1     4      0.00000     17.69286      3.75320      0.70093   #   H21   0.45882005   0.17958994   0.03413013
   22 1     4      0.00000     16.55707      4.66226      6.35128   #   H22   0.42904175   0.20242554   0.30925902
   23 1     3      0.00000     11.43734      4.80222      5.82324   #    C1   0.29633860   0.21121235   0.28354745
   24 1     3      0.00000      9.99732      4.78606      5.85796   #    C2   0.25899958   0.21029643   0.28523783
   25 1     1      0.00000      9.31388      4.04325      4.97818   #    C3   0.24130977   0.17754723   0.24239922
   26 1     3      0.00000      7.83876      4.02174      4.99712   #    C4   0.20306160   0.17643118   0.24332167
   27 1     3      0.00000      7.14019      4.89514      5.74737   #    C5   0.18493232   0.21600959   0.27985301
   28 1     3      0.00000      5.65268      4.87671      5.74619   #    C6   0.14636429   0.21511963   0.27979540
   29 1     3      0.00000      4.94691      3.65795      5.73926   #    C7   0.12802260   0.15597027   0.27945796
   30 1     3      0.00000      3.54885      3.64678      5.74674   #    C8   0.09177344   0.15539923   0.27982256
   31 1     3      0.00000      2.83646      4.85088      5.76431   #    C9   0.07334433   0.21379686   0.28067786
   32 1     3      0.00000      1.39703      4.83805      5.77210   #   C10   0.03602261   0.21314485   0.28105698
   33 1     3      0.00000      3.52746      6.06747      5.77710   #   C11   0.09130251   0.27281893   0.28130047
   34 1     3      0.00000      4.92554      6.08143      5.77055   #   C12   0.12755224   0.27352123   0.28098160
   35 1     2      0.00000      7.88454      5.99003      6.48692   #   C13   0.20422270   0.26638302   0.31586321
   36 1     2      0.00000      9.26884      5.51641      6.95701   #   C14   0.24006729   0.24161435   0.33875324
   37 1     3      0.00000     16.06611      0.89369      5.78712   #   C15   0.41621524   0.02157414   0.28178846
   38 1     3      0.00000     15.87966      0.88342      4.39445   #   C16   0.41146993   0.02632592   0.21397620
   39 1     3      0.00000     15.76091      9.97031      3.68942   #   C17   0.40875754   0.47018779   0.17964667
   40 1     3      0.00000     15.86554      8.75863      4.39400   #   C18   0.41138228   0.40869949   0.21395421
   41 1     3      0.00000     16.05254      8.74954      5.78708   #   C19   0.41614131   0.40300602   0.28178664
   42 1     3      0.00000     16.14142      9.97065      6.47486   #   C20   0.41844460   0.45970259   0.31527632
   43 1     3      0.00000     15.56726      9.98624      2.21830   #   C21   0.40383154   0.47650726   0.10801422
   44 1     3      0.00000     16.05003      4.51755      1.87097   #   C22   0.41617763   0.21229059   0.09110177
   45 1     3      0.00000     14.74970      5.04595      1.82285   #   C23   0.38248485   0.23812815   0.08875865
   46 1     3      0.00000     14.08747      5.22055      0.59628   #   C24   0.36539962   0.25123002   0.02903409
   47 1     3      0.00000     14.76840      5.65564      9.67552   #   C25   0.38248809   0.23812561   0.47112401
   48 1     3      0.00000     16.06862      5.12568      9.70323   #   C26   0.41617892   0.21228954   0.47247337
   49 1     3      0.00000     16.68991      4.16138      0.67161   #   C27   0.43283232   0.19951881   0.03270221
   50 1     3      0.00000     16.06517      4.95744      8.22277   #   C28   0.41617841   0.20970245   0.40038597
   51 1     3      0.00000     16.05339      4.68579      3.35143   #   C29   0.41617566   0.21487820   0.16318893
   52 1     3      0.00000     16.05491      7.26049      5.73395   #   C30   0.41615350   0.33090727   0.27919941
   53 1     3      0.00000     16.06364      2.38273      5.84025   #   C31   0.41620055   0.09367260   0.28437552
   54 1     5      0.00000     12.59417      4.81558      5.79573   #    N1   0.32633455   0.21196436   0.28220773
   55 1     5      0.00000      0.23984      4.82775      5.77836   #    N2   0.00601868   0.21262079   0.28136180
   56 1     6      0.00000     14.96962      8.88332      1.53128   #    N3   0.38834138   0.42554616   0.07456186
   57 1     7      0.00000     12.75391      5.76360      0.56147   #    N4   0.33084512   0.27772832   0.02733909
   58 1     8      0.00000     15.93554      0.69922      1.55333   #    O1   0.41309441   0.02809371   0.07563523
   59 1     8      0.00000     12.11166      6.11800      1.72593   #    O2   0.31413104   0.29054574   0.08403945
   60 1     8      0.00000     12.18246      6.71938      9.74414   #    O3   0.31547414   0.28951566   0.47446531
   61 1     9      0.00000     17.16658      4.74414      3.84548   #    O4   0.44500833   0.21584843   0.18724546
   62 1     9      0.00000     17.17607      4.90296      7.72310   #    O5   0.44501144   0.20894100   0.37605611
   63 1     9      0.00000     17.16777      6.76270      5.71336   #    O6   0.44499094   0.30681543   0.27819710
   64 1     9      0.00000     17.17487      2.88440      5.85522   #    O7   0.44502881   0.11797401   0.28510442
   65 1     9      0.00000     14.94365      6.75882      5.71898   #    O8   0.38732440   0.30660582   0.27847042
   66 1     9      0.00000     14.95195      4.89910      7.72872   #    O9   0.38734491   0.20873218   0.37632939
   67 1     9      0.00000     14.94246      4.74027      3.85108   #   O10   0.38734180   0.21563958   0.18751797
   68 1     9      0.00000     14.95075      2.88053      5.86082   #   O11   0.38736228   0.11776515   0.28537697
   69 1     11     0.00000     14.61837      5.61639     16.05934   #   Zn1   0.37818751   0.21215205   0.78196736
   70 1     10     0.00000     17.54875      5.62149     16.05195   #   Zn2   0.45416573   0.21242778   0.78160748
   71 1     4      0.00000      9.85914      4.24802     14.50362   #    H1   0.25484368   0.15157778   0.70621557
   72 1     4      0.00000      7.35611      4.09662     14.63842   #    H2   0.18993236   0.14371872   0.71277910
   73 1     4      0.00000      5.49958      3.51031     16.01542   #    H3   0.14168815   0.11005934   0.77982838
   74 1     4      0.00000      3.04832      3.49621     16.01210   #    H4   0.07813257   0.10938725   0.77966707
   75 1     4      0.00000      3.01014      7.80311     16.05896   #    H5   0.07729194   0.31832753   0.78194861
   76 1     4      0.00000      5.46075      7.83317     16.03802   #    H6   0.14083284   0.31986578   0.78092900
   77 1     4      0.00000      7.32541      7.11694     17.64235   #    H7   0.18905073   0.27904145   0.85904749
   78 1     4      0.00000      8.03135      7.65785     16.07502   #    H8   0.20747341   0.31121373   0.78273046
   79 1     4      0.00000      9.16823      5.62203     18.08685   #    H9   0.23674902   0.20478202   0.88069166
   80 1     4      0.00000      9.88561      7.18992     17.56814   #   H10   0.25543761   0.28286476   0.85543416
   81 1     4      0.00000     15.82809      2.61849     14.12563   #   H12   0.40957044   0.07388260   0.68781047
   82 1     4      0.00000     15.85197      8.61639     14.12779   #   H13   0.41040145   0.36509612   0.68791552
   83 1     4      0.00000     16.30939     10.76813     17.81676   #   H14   0.42210100   0.45566355   0.86754007
   84 1     4      0.00000     14.92395      9.69304     10.75806   #   H16   0.38659439   0.43007579   0.52383556
   85 1     4      0.00000     14.53959      8.89440     12.31340   #   H17   0.37650097   0.38543473   0.59956829
   86 1     4      0.00000     16.57894      5.37415     15.52048   #   H18   0.42904622   0.20242221   0.75572880
   87 1     4      0.00000     14.27452      6.11999     13.01090   #   H19   0.36948541   0.24809687   0.63353124
   88 1     4      0.00000     14.28836      6.58479     18.99524   #   H20   0.36947730   0.24810305   0.92492323
   89 1     4      0.00000     17.71716      4.55053     10.96949   #   H21   0.45882005   0.17958994   0.53413013
   90 1     4      0.00000     16.58137      5.45958     16.61984   #   H22   0.42904175   0.20242554   0.80925902
   91 1     3      0.00000     11.46164      5.59955     16.09179   #    C1   0.29633860   0.21121235   0.78354745
   92 1     3      0.00000     10.02162      5.58339     16.12651   #    C2   0.25899958   0.21029643   0.78523783
   93 1     1      0.00000      9.33818      4.84058     15.24673   #    C3   0.24130977   0.17754723   0.74239922
   94 1     3      0.00000      7.86306      4.81906     15.26567   #    C4   0.20306160   0.17643118   0.74332167
   95 1     3      0.00000      7.16449      5.69246     16.01592   #    C5   0.18493232   0.21600959   0.77985301
   96 1     3      0.00000      5.67698      5.67404     16.01474   #    C6   0.14636429   0.21511963   0.77979540
   97 1     3      0.00000      4.97121      4.45528     16.00781   #    C7   0.12802260   0.15597027   0.77945796
   98 1     3      0.00000      3.57315      4.44410     16.01530   #    C8   0.09177344   0.15539923   0.77982256
   99 1     3      0.00000      2.86075      5.64821     16.03286   #    C9   0.07334433   0.21379686   0.78067786
  100 1     3      0.00000      1.42133      5.63538     16.04065   #   C10   0.03602261   0.21314485   0.78105698
  101 1     3      0.00000      3.55176      6.86480     16.04565   #   C11   0.09130251   0.27281893   0.78130047
  102 1     3      0.00000      4.94984      6.87876     16.03910   #   C12   0.12755224   0.27352123   0.78098160
  103 1     2      0.00000      7.90884      6.78736     16.75547   #   C13   0.20422270   0.26638302   0.81586321
  104 1     2      0.00000      9.29314      6.31374     17.22556   #   C14   0.24006729   0.24161435   0.83875324
  105 1     3      0.00000     16.09041      1.69102     16.05567   #   C15   0.41621524   0.02157414   0.78178846
  106 1     3      0.00000     15.90396      1.68075     14.66300   #   C16   0.41146993   0.02632592   0.71397620
  107 1     3      0.00000     15.78521     10.76764     13.95797   #   C17   0.40875754   0.47018779   0.67964667
  108 1     3      0.00000     15.88984      9.55596     14.66255   #   C18   0.41138228   0.40869949   0.71395421
  109 1     3      0.00000     16.07684      9.54687     16.05563   #   C19   0.41614131   0.40300602   0.78178664
  110 1     3      0.00000     16.16571     10.76798     16.74341   #   C20   0.41844460   0.45970259   0.81527632
  111 1     3      0.00000     15.59156     10.78357     12.48685   #   C21   0.40383154   0.47650726   0.60801422
  112 1     3      0.00000     16.07433      5.31488     12.13952   #   C22   0.41617763   0.21229059   0.59110177
  113 1     3      0.00000     14.77400      5.84328     12.09140   #   C23   0.38248485   0.23812815   0.58875865
  114 1     3      0.00000     14.11176      6.01788     10.86483   #   C24   0.36539962   0.25123002   0.52903409
  115 1     3      0.00000     14.79270      6.45297     19.94407   #   C25   0.38248809   0.23812561   0.97112401
  116 1     3      0.00000     16.09292      5.92301     19.97179   #   C26   0.41617892   0.21228954   0.97247337
  117 1     3      0.00000     16.71421      4.95870     10.94016   #   C27   0.43283232   0.19951881   0.53270221
  118 1     3      0.00000     16.08947      5.75477     18.49132   #   C28   0.41617841   0.20970245   0.90038597
  119 1     3      0.00000     16.07769      5.48312     13.61998   #   C29   0.41617566   0.21487820   0.66318893
  120 1     3      0.00000     16.07921      8.05782     16.00250   #   C30   0.41615350   0.33090727   0.77919941
  121 1     3      0.00000     16.08794      3.18006     16.10880   #   C31   0.41620055   0.09367260   0.78437552
  122 1     5      0.00000     12.61847      5.61291     16.06428   #    N1   0.32633455   0.21196436   0.78220773
  123 1     5      0.00000      0.26413      5.62508     16.04691   #    N2   0.00601868   0.21262079   0.78136180
  124 1     6      0.00000     14.99392      9.68064     11.79984   #    N3   0.38834138   0.42554616   0.57456186
  125 1     7      0.00000     12.77820      6.56093     10.83002   #    N4   0.33084512   0.27772832   0.52733909
  126 1     8      0.00000     15.95984      1.49655     11.82188   #    O1   0.41309441   0.02809371   0.57563523
  127 1     8      0.00000     12.13595      6.91533     11.99448   #    O2   0.31413104   0.29054574   0.58403945
  128 1     8      0.00000     12.20676      7.51671     20.01269   #    O3   0.31547414   0.28951566   0.97446531
  129 1     9      0.00000     17.19088      5.54147     14.11403   #    O4   0.44500833   0.21584843   0.68724546
  130 1     9      0.00000     17.20037      5.70029     17.99165   #    O5   0.44501144   0.20894100   0.87605611
  131 1     9      0.00000     17.19207      7.56003     15.98191   #    O6   0.44499094   0.30681543   0.77819710
  132 1     9      0.00000     17.19917      3.68173     16.12377   #    O7   0.44502881   0.11797401   0.78510442
  133 1     9      0.00000     14.96795      7.55615     15.98753   #    O8   0.38732440   0.30660582   0.77847042
  134 1     9      0.00000     14.97624      5.69643     17.99727   #    O9   0.38734491   0.20873218   0.87632939
  135 1     9      0.00000     14.96675      5.53760     14.11963   #   O10   0.38734180   0.21563958   0.68751797
  136 1     9      0.00000     14.97505      3.67786     16.12937   #   O11   0.38736228   0.11776515   0.78537697
  137 1     11     0.00000     14.58003     15.11690      5.79079   #   Zn1   0.37818751   0.71215205   0.28196736
  138 1     10     0.00000     17.51041     15.12201      5.78340   #   Zn2   0.45416573   0.71242778   0.28160748
  139 1     4      0.00000      9.82080     13.74853      4.23507   #    H1   0.25484368   0.65157778   0.20621557
  140 1     4      0.00000      7.31777     13.59714      4.36987   #    H2   0.18993236   0.64371872   0.21277910
  141 1     4      0.00000      5.46124     13.01082      5.74686   #    H3   0.14168815   0.61005934   0.27982838
  142 1     4      0.00000      3.00997     12.99672      5.74355   #    H4   0.07813257   0.60938725   0.27966707
  143 1     4      0.00000      2.97179     17.30363      5.79041   #    H5   0.07729194   0.81832753   0.28194861
  144 1     4      0.00000      5.42241     17.33368      5.76947   #    H6   0.14083284   0.81986578   0.28092900
  145 1     4      0.00000      7.28707     16.61745      7.37380   #    H7   0.18905073   0.77904145   0.35904749
  146 1     4      0.00000      7.99300     17.15836      5.80646   #    H8   0.20747341   0.81121373   0.28273046
  147 1     4      0.00000      9.12989     15.12254      7.81830   #    H9   0.23674902   0.70478202   0.38069166
  148 1     4      0.00000      9.84727     16.69043      7.29959   #   H10   0.25543761   0.78286476   0.35543416
  149 1     4      0.00000     15.78975     12.11900      3.85708   #   H12   0.40957044   0.57388260   0.18781047
  150 1     4      0.00000     15.81362     18.11691      3.85924   #   H13   0.41040145   0.86509612   0.18791552
  151 1     4      0.00000     16.27105     20.26865      7.54821   #   H14   0.42210100   0.95566355   0.36754007
  152 1     4      0.00000     14.88561     19.19356      0.48951   #   H16   0.38659439   0.93007579   0.02383556
  153 1     4      0.00000     14.50125     18.39491      2.04484   #   H17   0.37650097   0.88543473   0.09956829
  154 1     4      0.00000     16.54060     14.87467      5.25193   #   H18   0.42904622   0.70242221   0.25572880
  155 1     4      0.00000     14.23617     15.62050      2.74234   #   H19   0.36948541   0.74809687   0.13353124
  156 1     4      0.00000     14.25002     16.08530      8.72669   #   H20   0.36947730   0.74810305   0.42492323
  157 1     4      0.00000     17.67882     14.05105      0.70093   #   H21   0.45882005   0.67958994   0.03413013
  158 1     4      0.00000     16.54303     14.96010      6.35128   #   H22   0.42904175   0.70242554   0.30925902
  159 1     3      0.00000     11.42330     15.10007      5.82324   #    C1   0.29633860   0.71121235   0.28354745
  160 1     3      0.00000      9.98328     15.08390      5.85796   #    C2   0.25899958   0.71029643   0.28523783
  161 1     1      0.00000      9.29983     14.34109      4.97818   #    C3   0.24130977   0.67754723   0.24239922
  162 1     3      0.00000      7.82472     14.31958      4.99712   #    C4   0.20306160   0.67643118   0.24332167
  163 1     3      0.00000      7.12615     15.19298      5.74737   #    C5   0.18493232   0.71600959   0.27985301
  164 1     3      0.00000      5.63864     15.17456      5.74619   #    C6   0.14636429   0.71511963   0.27979540
  165 1     3      0.00000      4.93286     13.95580      5.73926   #    C7   0.12802260   0.65597027   0.27945796
  166 1     3      0.00000      3.53480     13.94462      5.74674   #    C8   0.09177344   0.65539923   0.27982256
  167 1     3      0.00000      2.82241     15.14872      5.76431   #    C9   0.07334433   0.71379686   0.28067786
  168 1     3      0.00000      1.38299     15.13590      5.77210   #   C10   0.03602261   0.71314485   0.28105698
  169 1     3      0.00000      3.51341     16.36531      5.77710   #   C11   0.09130251   0.77281893   0.28130047
  170 1     3      0.00000      4.91150     16.37927      5.77055   #   C12   0.12755224   0.77352123   0.28098160
  171 1     2      0.00000      7.87050     16.28788      6.48692   #   C13   0.20422270   0.76638302   0.31586321
  172 1     2      0.00000      9.25480     15.81425      6.95701   #   C14   0.24006729   0.74161435   0.33875324
  173 1     3      0.00000     16.05207     11.19153      5.78712   #   C15   0.41621524   0.52157414   0.28178846
  174 1     3      0.00000     15.86561     11.18126      4.39445   #   C16   0.41146993   0.52632592   0.21397620
  175 1     3      0.00000     15.74687     20.26816      3.68942   #   C17   0.40875754   0.97018779   0.17964667
  176 1     3      0.00000     15.85149     19.05647      4.39400   #   C18   0.41138228   0.90869949   0.21395421
  177 1     3      0.00000     16.03850     19.04738      5.78708   #   C19   0.41614131   0.90300602   0.28178664
  178 1     3      0.00000     16.12737     20.26849      6.47486   #   C20   0.41844460   0.95970259   0.31527632
  179 1     3      0.00000     15.55322     20.28408      2.21830   #   C21   0.40383154   0.97650726   0.10801422
  180 1     3      0.00000     16.03599     14.81539      1.87097   #   C22   0.41617763   0.71229059   0.09110177
  181 1     3      0.00000     14.73565     15.34379      1.82285   #   C23   0.38248485   0.73812815   0.08875865
  182 1     3      0.00000     14.07342     15.51840      0.59628   #   C24   0.36539962   0.75123002   0.02903409
  183 1     3      0.00000     14.75436     15.95348      9.67552   #   C25   0.38248809   0.73812561   0.47112401
  184 1     3      0.00000     16.05457     15.42352      9.70323   #   C26   0.41617892   0.71228954   0.47247337
  185 1     3      0.00000     16.67587     14.45922      0.67161   #   C27   0.43283232   0.69951881   0.03270221
  186 1     3      0.00000     16.05112     15.25529      8.22277   #   C28   0.41617841   0.70970245   0.40038597
  187 1     3      0.00000     16.03935     14.98364      3.35143   #   C29   0.41617566   0.71487820   0.16318893
  188 1     3      0.00000     16.04087     17.55833      5.73395   #   C30   0.41615350   0.83090727   0.27919941
  189 1     3      0.00000     16.04960     12.68058      5.84025   #   C31   0.41620055   0.59367260   0.28437552
  190 1     5      0.00000     12.58013     15.11342      5.79573   #    N1   0.32633455   0.71196436   0.28220773
  191 1     5      0.00000      0.22579     15.12559      5.77836   #    N2   0.00601868   0.71262079   0.28136180
  192 1     6      0.00000     14.95558     19.18116      1.53128   #    N3   0.38834138   0.92554616   0.07456186
  193 1     7      0.00000     12.73986     16.06144      0.56147   #    N4   0.33084512   0.77772832   0.02733909
  194 1     8      0.00000     15.92150     10.99706      1.55333   #    O1   0.41309441   0.52809371   0.07563523
  195 1     8      0.00000     12.09761     16.41585      1.72593   #    O2   0.31413104   0.79054574   0.08403945
  196 1     8      0.00000     12.16842     17.01723      9.74414   #    O3   0.31547414   0.78951566   0.47446531
  197 1     9      0.00000     17.15254     15.04198      3.84548   #    O4   0.44500833   0.71584843   0.18724546
  198 1     9      0.00000     17.16203     15.20081      7.72310   #    O5   0.44501144   0.70894100   0.37605611
  199 1     9      0.00000     17.15373     17.06055      5.71336   #    O6   0.44499094   0.80681543   0.27819710