ITEM: TIMESTEP
0
ITEM: NUMBER OF ATOMS
544
ITEM: BOX BOUNDS xy xz yz pp pp pp
-2.8087600000000001e-02 3.8617634740000000e+01 -2.8087600000000001e-02
0.0000000000000000e+00 2.2190343250000002e+01 4.8597240000000000e-02
0.0000000000000000e+00 2.0537102619999999e+01 1.5946582400000000e+00
ITEM: ATOMS id type element x y z q
4 4 H 5.98305 4.0986 3.35809 0
5 4 H 4.5065 2.94176 4.9916 0
6 4 H 2.10641 2.8644 5.42198 0
7 4 H 2.21313 6.97552 6.74327 0
8 4 H 4.6351 7.04203 6.31549 0
9 4 H 6.86178 5.75349 7.2254 0
27 3 C 6.22096 5.03926 5.28398 0
28 3 C 4.76188 4.99867 5.6127 0
29 3 C 4.01837 3.8278 5.37702 0
30 3 C 2.6399 3.78449 5.6265 0
31 3 C 1.96092 4.92028 6.11267 0
32 3 C 0.566454 4.93436 6.31581 0
33 3 C 2.7067 6.08535 6.36962 0
34 3 C 4.09252 6.12381 6.12765 0
10 4 H 7.36263 6.76056 5.82195 0
26 3 C 6.67968 4.51474 4.07431 0
35 2 C 7.23422 5.71474 6.17934 0
1 11 Zn 13.312 4.28193 6.75706 0
3 4 H 8.41877 4.14517 2.77073 0
11 4 H 8.58089 4.08873 6.75845 0
12 4 H 9.36427 5.70093 6.587 0
19 4 H 14.9525 6.93974 2.98565 0
23 3 C 10.3921 4.32461 4.40122 0
24 3 C 9.05452 4.6312 4.72408 0
25 1 C 8.12411 4.45841 3.76848 0
36 2 C 8.61645 5.01007 6.13823 0
45 3 C 15.2931 6.30712 2.17795 0
54 5 N 11.2734 4.32923 5.22436 0
65 9 O 14.7421 6.39985 5.879 0
66 9 O 14.8915 4.55173 8.68758 0
67 9 O 14.4991 4.73557 4.49856 0
68 9 O 14.5441 2.07237 5.94722 0
18 4 H 15.3593 4.20866 6.55758 0
22 4 H 15.3596 4.20718 6.55917 0
20 4 H 15.8986 7.16117 9.11603 0
46 3 C 15.4378 6.84135 0.896732 0
47 3 C 15.8575 6.78682 10.1338 0
2 10 Zn 16.9222 4.12902 6.39338 0
13 4 H 16.8412 1.35699 3.64074 0
21 4 H 16.1165 3.04982 1.57791 0
38 3 C 16.662 0.380892 4.07687 0
44 3 C 15.6056 4.96501 2.43705 0
49 3 C 15.9752 4.10798 1.39559 0
50 3 C 16.0586 4.60383 9.19107 0
51 3 C 15.5497 4.49515 3.80764 0
52 3 C 15.944 6.8689 5.8133 0
53 3 C 15.703 1.5184 6.01813 0
58 8 O 17.6896 0.417779 1.4288 0
61 9 O 16.5976 3.97881 4.32161 0
62 9 O 17.1174 4.38586 8.50093 0
63 9 O 16.9657 6.17838 6.13811 0
64 9 O 16.7116 2.09405 6.54801 0
278 4 H 21.391 2.86294 5.4253 0
279 4 H 21.4965 6.9772 6.73665 0
302 3 C 21.9242 3.78366 5.62767 0
303 3 C 21.2449 4.92039 6.1111 0
304 3 C 19.8504 4.93459 6.31419 0
305 3 C 21.9903 6.08627 6.36523 0
327 5 N 19.1575 3.96653 6.10549 0
14 4 H 17.3231 7.38756 3.59603 0
116 3 C 16.0705 4.62581 0.106795 0
275 4 H 27.7045 4.13727 2.77368 0
276 4 H 25.2688 4.0914 3.36027 0
277 4 H 23.7911 2.93986 4.99508 0
280 4 H 23.9183 7.04343 6.30902 0
281 4 H 26.1449 5.76019 7.22213 0
282 4 H 26.6458 6.76238 5.81537 0
283 4 H 27.8653 4.09457 6.76198 0
284 4 H 28.6478 5.70644 6.58512 0
295 3 C 29.6726 4.32156 4.40676 0
296 3 C 28.3376 4.63105 4.72899 0
297 1 C 27.4093 4.45399 3.77076 0
298 3 C 25.9648 4.51026 4.07538 0
299 3 C 25.5053 5.03851 5.28313 0
300 3 C 24.046 4.99832 5.61138 0
301 3 C 23.3028 3.82673 5.37831 0
306 3 C 23.3762 6.12454 6.12337 0
307 2 C 26.5178 5.71782 6.17651 0
308 2 C 27.9002 5.01385 6.13904 0
326 5 N 30.5679 4.32871 5.21562 0
55 5 N 38.4424 3.96703 6.10455 0
273 11 Zn 32.5943 4.28079 6.76232 0
274 10 Zn 36.2073 4.12961 6.39324 0
285 4 H 36.1248 1.35755 3.6403 0
290 4 H 34.6443 4.20956 6.5587 0
291 4 H 34.2366 6.94009 2.98661 0
292 4 H 35.1838 7.15973 9.11551 0
293 4 H 35.4001 3.0502 1.57805 0
294 4 H 34.6447 4.20807 6.56032 0
310 3 C 35.9457 0.381424 4.07642 0
316 3 C 34.8894 4.96533 2.43759 0
317 3 C 34.5769 6.30747 2.17865 0
318 3 C 34.7214 6.84193 0.89783 0
319 3 C 35.1426 6.78569 10.1336 0
321 3 C 35.2587 4.10838 1.39588 0
322 3 C 35.3448 4.602 9.19183 0
323 3 C 34.8339 4.49534 3.80816 0
324 3 C 35.229 6.86934 5.81389 0
325 3 C 34.9878 1.51886 6.01827 0
330 8 O 36.9715 0.41809 1.42757 0
333 9 O 35.882 3.97927 4.32173 0
334 9 O 36.4032 4.38698 8.50008 0
335 9 O 36.2509 6.17875 6.13774 0
336 9 O 35.9966 2.09443 6.54801 0
337 9 O 34.0271 6.40026 5.88063 0
338 9 O 34.1768 4.54786 8.69023 0
339 9 O 33.7835 4.7354 4.49968 0
340 9 O 33.8288 2.07283 5.94799 0
286 4 H 36.6076 7.38812 3.59648 0
388 3 C 35.3537 4.62642 0.10718 0
140 4 H 5.95288 14.4486 3.35155 0
141 4 H 4.49541 13.2515 4.99652 0
142 4 H 2.09426 13.165 5.42514 0
165 3 C 4.0038 14.1324 5.38952 0
166 3 C 2.62533 14.0845 5.63951 0
57 7 N 15.1553 8.22795 0.62775 0
59 8 O 14.756 8.99183 1.5584 0
60 8 O 15.3258 9.50066 9.74286 0
139 4 H 8.38586 14.5135 2.74894 0
204 9 O 14.5237 12.3766 5.9383 0
15 4 H 15.1959 9.26333 6.82464 0
137 11 Zn 13.2848 14.5982 6.74134 0
147 4 H 8.5705 14.3555 6.72975 0
159 3 C 10.3706 14.6562 4.36888 0
190 5 N 11.2659 14.6626 5.17762 0
154 4 H 15.3373 14.5048 6.54775 0
158 4 H 15.3375 14.5033 6.54852 0
16 4 H 19.0465 8.88388 0.702939 0
17 4 H 18.0182 7.77703 1.41317 0
56 6 N 18.6412 8.58795 1.62125 0
39 3 C 17.1263 9.5317 3.43341 0
40 3 C 16.9317 8.28841 4.05156 0
41 3 C 16.1848 8.18707 5.23981 0
42 3 C 15.7098 9.33633 5.8737 0
43 3 C 17.8264 9.65267 2.12807 0
149 4 H 16.8212 11.6531 3.64167 0
157 4 H 16.0851 13.358 1.57132 0
173 3 C 15.9621 10.5821 5.30189 0
174 3 C 16.6397 10.6769 4.07582 0
185 3 C 15.9514 14.4181 1.39135 0
189 3 C 15.6803 11.8173 6.01469 0
194 8 O 17.6968 10.723 1.44089 0
200 9 O 16.6892 12.3906 6.54653 0
414 4 H 21.3789 13.164 5.42598 0
438 3 C 21.9099 14.0837 5.63977 0
138 10 Zn 16.901 14.4273 6.3958 0
197 9 O 16.5833 14.2874 4.32202 0
198 9 O 17.0851 14.6767 8.50772 0
463 5 N 19.1394 14.2653 6.11551 0
411 4 H 27.6706 14.5112 2.74923 0
412 4 H 25.2376 14.4465 3.35216 0
413 4 H 23.7801 13.2506 4.99736 0
437 3 C 23.2884 14.1317 5.38981 0
419 4 H 27.8553 14.3569 6.73053 0
431 3 C 29.6535 14.6617 4.37088 0
462 5 N 30.5539 14.6523 5.17438 0
329 7 N 34.4396 8.22859 0.628196 0
331 8 O 34.0396 8.99249 1.56001 0
332 8 O 34.6092 9.49919 9.74083 0
287 4 H 34.4807 9.26386 6.82528 0
288 4 H 38.3305 8.8842 0.703043 0
289 4 H 37.3019 7.77756 1.41326 0
311 3 C 36.4108 9.53225 3.43389 0
312 3 C 36.2162 8.28897 4.05206 0
313 3 C 35.4695 8.18761 5.24041 0
314 3 C 34.9945 9.33687 5.87433 0
315 3 C 37.1108 9.65316 2.12846 0
328 6 N 37.9253 8.58825 1.62138 0
421 4 H 36.1058 11.6537 3.64222 0
429 4 H 35.37 13.3576 1.57178 0
445 3 C 35.2468 10.5826 5.30248 0
446 3 C 35.9244 10.6774 4.07637 0
457 3 C 35.2359 14.4176 1.39159 0
461 3 C 34.965 11.8178 6.01522 0
466 8 O 36.9814 10.7236 1.44142 0
472 9 O 35.9739 12.3914 6.54694 0
476 9 O 33.8084 12.377 5.93883 0
191 5 N 38.4239 14.2662 6.11542 0
409 11 Zn 32.5683 14.6017 6.74305 0
410 10 Zn 36.1855 14.4281 6.39584 0
426 4 H 34.6218 14.5055 6.54799 0
430 4 H 34.622 14.504 6.54878 0
469 9 O 35.8677 14.2877 4.32216 0
470 9 O 36.3698 14.6779 8.50762 0
162 3 C 6.65402 14.8498 4.07289 0
143 4 H 2.19043 17.2683 6.77555 0
144 4 H 4.61569 17.3413 6.34943 0
145 4 H 6.85285 15.9991 7.25741 0
163 3 C 6.20204 15.3476 5.29711 0
164 3 C 4.74454 15.303 5.63157 0
167 3 C 1.94436 15.2164 6.1342 0
168 3 C 0.549436 15.2305 6.3352 0
169 3 C 2.68792 16.3812 6.39842 0
170 3 C 4.07398 16.4236 6.15596 0
146 4 H 7.34298 17.0515 5.88743 0
171 2 C 7.22 15.9944 6.20843 0
161 1 C 8.09719 14.8017 3.75697 0
148 4 H 9.35739 15.9686 6.60096 0
155 4 H 14.9548 17.2564 2.98773 0
160 3 C 9.03421 14.9542 4.71043 0
172 2 C 8.60411 15.2941 6.13696 0
181 3 C 15.2892 16.6222 2.17954 0
193 7 N 15.1546 18.5453 0.63138 0
195 8 O 14.7447 19.3073 1.55613 0
196 8 O 15.3478 19.82 9.74689 0
201 9 O 14.727 16.7038 5.86892 0
202 9 O 14.8629 14.8902 8.66486 0
203 9 O 14.484 15.0459 4.49219 0
151 4 H 15.1833 19.5619 6.8227 0
37 3 C 15.9572 20.8811 5.30378 0
152 4 H 19.0305 19.1898 0.69504 0
153 4 H 18.0313 18.0714 1.42575 0
156 4 H 15.8749 17.4741 9.11459 0
182 3 C 15.4303 17.1569 0.897801 0
183 3 C 15.8372 17.0995 10.1326 0
192 6 N 18.6411 18.8954 1.62079 0
150 4 H 17.3225 17.6877 3.60241 0
175 3 C 17.1209 19.8313 3.43483 0
176 3 C 16.9292 18.5887 4.05559 0
177 3 C 16.178 18.4872 5.24126 0
178 3 C 15.7016 19.6357 5.87397 0
179 3 C 17.8136 19.9519 2.12501 0
180 3 C 15.5951 15.2771 2.43576 0
186 3 C 16.0238 14.9219 9.18358 0
187 3 C 15.537 14.8053 3.8052 0
188 3 C 15.9305 17.1697 5.81248 0
199 9 O 16.9479 16.4776 6.14643 0
415 4 H 21.4745 17.2681 6.77401 0
439 3 C 21.2287 15.2158 6.13377 0
440 3 C 19.8338 15.2298 6.33471 0
441 3 C 21.9721 16.3808 6.39735 0
252 3 C 16.0394 14.9387 0.102635 0
433 1 C 27.3818 14.8004 3.75724 0
434 3 C 25.9387 14.8484 4.07305 0
416 4 H 23.8997 17.3412 6.34786 0
417 4 H 26.137 16.0003 7.25669 0
418 4 H 26.6269 17.0517 5.88598 0
420 4 H 28.6416 15.9699 6.60028 0
432 3 C 28.3178 14.9547 4.71226 0
435 3 C 25.4865 15.3471 5.29689 0
436 3 C 24.029 15.3025 5.63126 0
442 3 C 23.3582 16.4233 6.15492 0
443 2 C 26.5043 15.9948 6.20774 0
444 2 C 27.8884 15.2949 6.13697 0
309 3 C 35.2416 20.8816 5.30371 0
422 4 H 36.6054 17.6882 3.60145 0
423 4 H 34.4679 19.5625 6.82287 0
424 4 H 38.3125 19.1903 0.693457 0
425 4 H 37.3138 18.0718 1.4247 0
427 4 H 34.2381 17.2559 2.98722 0
428 4 H 35.1596 17.4746 9.11499 0
447 3 C 36.4039 19.8318 3.43401 0
448 3 C 36.2124 18.5892 4.05483 0
449 3 C 35.4618 18.4878 5.24088 0
450 3 C 34.9859 19.6363 5.8739 0
451 3 C 37.096 19.9523 2.12387 0
452 3 C 34.8792 15.2767 2.4357 0
453 3 C 34.5727 16.6216 2.1792 0
454 3 C 34.7137 17.1561 0.897222 0
455 3 C 35.1218 17.1 10.133 0
458 3 C 35.3085 14.9224 9.18378 0
459 3 C 34.8212 14.8052 3.80524 0
460 3 C 35.2146 17.1703 5.81224 0
464 6 N 37.9236 18.896 1.61942 0
465 7 N 34.4371 18.5444 0.630996 0
467 8 O 34.0276 19.3063 1.55535 0
468 8 O 34.6322 19.8205 9.74744 0
471 9 O 36.2321 16.4783 6.14606 0
473 9 O 34.0111 16.7042 5.86896 0
474 9 O 34.1475 14.8902 8.66538 0
475 9 O 33.7682 15.0456 4.49226 0
524 3 C 35.3239 14.9379 0.102807 0
72 4 H 6.00915 4.88937 13.6289 0
73 4 H 4.53142 3.7376 15.2634 0
74 4 H 2.13133 3.66077 15.6935 0
77 4 H 6.88554 6.55689 17.4913 0
95 3 C 6.24577 5.836 15.552 0
96 3 C 4.78654 5.79587 15.8803 0
97 3 C 4.04318 4.62442 15.6469 0
98 3 C 2.66464 4.5814 15.8962 0
99 3 C 1.98538 5.71808 16.3799 0
100 3 C 0.590874 5.73236 16.5829 0
101 3 C 2.73094 6.8838 16.6344 0
102 3 C 4.1168 6.922 16.3926 0
94 3 C 6.70521 5.30803 14.3441 0
103 2 C 7.25838 6.51488 16.4456 0
69 11 Zn 13.3347 5.07787 17.0309 0
71 4 H 8.44488 4.93531 13.0422 0
79 4 H 8.60572 4.89133 17.0305 0
80 4 H 9.38842 6.50319 16.8541 0
91 3 C 10.413 5.11902 14.6754 0
92 3 C 9.07802 5.42848 14.9977 0
93 1 C 8.14971 5.25174 14.0394 0
104 2 C 8.64074 5.81082 16.4078 0
113 3 C 15.3173 7.10495 12.4476 0
122 5 N 11.3084 5.1265 15.4842 0
134 9 O 14.9171 5.34456 18.959 0
135 9 O 14.5237 5.53266 14.7683 0
136 9 O 14.5691 2.87006 16.2165 0
86 4 H 15.3847 5.00689 16.8273 0
90 4 H 15.3851 5.0054 16.8289 0
133 9 O 14.7675 7.19759 16.1494 0
48 3 C 16.0926 5.42408 10.3755 0
70 10 Zn 16.9476 4.92682 16.6616 0
81 4 H 16.8654 2.15489 13.9091 0
89 4 H 16.1391 3.84745 11.8461 0
106 3 C 16.6863 1.17875 14.3452 0
112 3 C 15.6294 5.76261 12.7062 0
117 3 C 15.998 4.9057 11.6642 0
118 3 C 16.0852 5.39915 19.4602 0
119 3 C 15.574 5.2925 14.0767 0
121 3 C 15.728 2.3161 16.2869 0
126 8 O 17.713 1.21565 11.6967 0
129 9 O 16.6222 4.77624 14.5901 0
130 9 O 17.1435 5.1845 18.7682 0
132 9 O 16.7368 2.8917 16.8167 0
346 4 H 21.416 3.66047 15.6927 0
370 3 C 21.9493 4.58112 15.8955 0
371 3 C 21.27 5.71769 16.3794 0
372 3 C 19.8755 5.7318 16.5825 0
373 3 C 22.0154 6.88345 16.6341 0
395 5 N 19.1826 4.76397 16.3729 0
131 9 O 16.9914 6.97591 16.406 0
343 4 H 27.7292 4.93579 13.0409 0
344 4 H 25.2935 4.88987 13.6279 0
345 4 H 23.8161 3.73757 15.2625 0
349 4 H 26.1701 6.55652 17.4906 0
351 4 H 27.8898 4.89059 17.0292 0
352 4 H 28.6729 6.50222 16.8536 0
363 3 C 29.6975 5.11845 14.6746 0
364 3 C 28.3624 5.42833 14.9966 0
365 1 C 27.4341 5.252 14.0382 0
366 3 C 25.9896 5.30836 14.343 0
367 3 C 25.5302 5.83605 15.5511 0
368 3 C 24.071 5.79579 15.8796 0
369 3 C 23.3278 4.62429 15.6461 0
374 3 C 23.4013 6.92178 16.3922 0
375 2 C 26.5429 6.51452 16.4449 0
376 2 C 27.9251 5.81025 16.4069 0
394 5 N 30.5926 5.12723 15.4836 0
320 3 C 35.3785 5.42311 10.3757 0
123 5 N 38.4669 4.76455 16.3735 0
341 11 Zn 32.6188 5.07762 17.0305 0
342 10 Zn 36.2317 4.92715 16.6619 0
353 4 H 36.1502 2.15485 13.9096 0
358 4 H 34.6689 5.00706 16.8273 0
361 4 H 35.4248 3.84707 11.8468 0
362 4 H 34.6692 5.00557 16.8289 0
378 3 C 35.971 1.17874 14.3457 0
384 3 C 34.914 5.76219 12.706 0
385 3 C 34.6012 7.10435 12.4471 0
389 3 C 35.2834 4.90521 11.6645 0
390 3 C 35.3686 5.4 19.4603 0
391 3 C 34.8585 5.29231 14.0767 0
393 3 C 35.0126 2.31622 16.2873 0
398 8 O 36.998 1.2157 11.6974 0
401 9 O 35.9066 4.7761 14.5903 0
402 9 O 36.427 5.18533 18.7685 0
404 9 O 36.0212 2.89198 16.8172 0
406 9 O 34.2006 5.3455 18.9589 0
407 9 O 33.8081 5.53248 14.7681 0
408 9 O 33.8536 2.8701 16.2166 0
403 9 O 36.2753 6.97612 16.406 0
405 9 O 34.0514 7.1975 16.1492 0
75 4 H 2.23718 7.77467 17.0061 0
76 4 H 4.6591 7.84076 16.5786 0
209 4 H 4.52039 14.0482 15.2656 0
210 4 H 2.11923 13.9615 15.6942 0
78 4 H 7.3865 7.55956 16.0849 0
87 4 H 14.9774 7.7375 13.2557 0
125 7 N 15.1798 9.02632 10.8978 0
127 8 O 14.78 9.78997 11.8289 0
128 8 O 15.3499 10.2967 20.0094 0
272 9 O 14.5485 13.1742 16.2072 0
83 4 H 15.2209 10.0611 17.0938 0
88 4 H 15.9245 7.9571 19.3836 0
114 3 C 15.4616 7.63954 11.1666 0
115 3 C 15.8833 7.58309 20.4016 0
84 4 H 19.0707 9.68172 10.9715 0
85 4 H 18.0427 8.57484 11.6821 0
124 6 N 18.6658 9.38579 11.89 0
82 4 H 17.3482 8.18548 13.8651 0
107 3 C 17.1511 10.3296 13.7025 0
108 3 C 16.9567 9.0863 14.3207 0
109 3 C 16.2099 8.98488 15.509 0
110 3 C 15.7347 10.1341 16.1429 0
111 3 C 17.851 10.4505 12.397 0
120 3 C 15.9695 7.6666 16.0825 0
217 4 H 16.8459 12.451 13.9108 0
241 3 C 15.987 11.3798 15.571 0
242 3 C 16.6645 11.4747 14.3449 0
257 3 C 15.7051 12.615 16.2838 0
262 8 O 17.7213 11.5208 11.7098 0
268 9 O 16.7139 13.1885 16.8155 0
347 4 H 21.5216 7.77421 17.006 0
482 4 H 21.4037 13.9611 15.6954 0
225 4 H 16.109 14.1549 11.8398 0
348 4 H 23.9435 7.84052 16.5783 0
350 4 H 26.6712 7.55924 16.0845 0
481 4 H 23.8049 14.0474 15.2669 0
359 4 H 34.2607 7.73688 13.2548 0
360 4 H 35.2078 7.95791 19.3843 0
386 3 C 34.7458 7.63851 11.1655 0
387 3 C 35.1666 7.58375 20.4021 0
397 7 N 34.4626 9.02516 10.8977 0
399 8 O 34.0641 9.78878 11.8271 0
354 4 H 36.6313 8.18514 13.8645 0
355 4 H 34.5055 10.0612 17.0939 0
356 4 H 38.354 9.68133 10.9709 0
357 4 H 37.3262 8.57433 11.6816 0
379 3 C 36.4345 10.3293 13.7019 0
380 3 C 36.2401 9.08604 14.3202 0
381 3 C 35.4937 8.9848 15.5087 0
382 3 C 35.019 10.1341 16.1428 0
383 3 C 37.1341 10.4501 12.3962 0
392 3 C 35.2533 7.66664 16.0823 0
396 6 N 37.9491 9.38547 11.8893 0
400 8 O 34.6336 10.2975 20.0111 0
489 4 H 36.1297 12.4507 13.9102 0
513 3 C 35.2713 11.3798 15.5709 0
514 3 C 35.9484 11.4745 14.3445 0
529 3 C 34.9898 12.6149 16.2837 0
534 8 O 37.004 11.5202 11.7089 0
540 9 O 35.9986 13.1885 16.8155 0
544 9 O 33.8331 13.1741 16.2075 0
497 4 H 35.3934 14.1554 11.84 0
208 4 H 5.97811 15.2437 13.6208 0
233 3 C 4.02867 14.9293 15.6581 0
234 3 C 2.65017 14.8813 15.908 0
211 4 H 2.21482 18.0657 17.0422 0
212 4 H 4.64004 18.1388 16.616 0
213 4 H 6.87732 16.798 17.525 0
231 3 C 6.22703 16.1445 15.5652 0
232 3 C 4.76932 16.1001 15.8996 0
235 3 C 1.96903 16.0134 16.4019 0
236 3 C 0.574116 16.0274 16.6029 0
237 3 C 2.71241 17.1784 16.6655 0
238 3 C 4.09847 17.2209 16.4231 0
214 4 H 7.36718 17.8492 16.1543 0
230 3 C 6.67926 15.6455 14.3413 0
239 2 C 7.24477 16.7923 16.476 0
207 4 H 8.41109 15.3079 13.0172 0
205 11 Zn 13.3077 15.3985 17.0131 0
215 4 H 8.59564 15.1547 16.999 0
216 4 H 9.38179 16.7674 16.8686 0
223 4 H 14.9791 18.0535 13.2564 0
227 3 C 10.392 15.4585 14.6422 0
228 3 C 9.05702 15.7525 14.9822 0
229 1 C 8.12217 15.5975 14.0256 0
240 2 C 8.6284 16.0925 16.4054 0
249 3 C 15.3132 17.4192 12.4481 0
258 5 N 11.2969 15.4506 15.4411 0
261 7 N 15.1784 19.3422 10.8999 0
263 8 O 14.7684 20.1042 11.8247 0
264 8 O 15.3726 20.6177 20.0154 0
269 9 O 14.7516 17.5016 16.1375 0
270 9 O 14.8879 15.6869 18.934 0
271 9 O 14.5084 15.8429 14.7608 0
219 4 H 15.2081 20.3597 17.0913 0
222 4 H 15.3623 15.3028 16.8166 0
226 4 H 15.3625 15.3013 16.8174 0
184 3 C 16.0628 15.7356 10.3712 0
105 3 C 15.982 21.6789 15.5723 0
506 3 C 21.9345 14.8811 15.9083 0
220 4 H 19.0536 19.9876 10.9625 0
221 4 H 18.0547 18.8692 11.6937 0
224 4 H 15.9002 18.2718 19.3832 0
250 3 C 15.4541 17.9538 11.1664 0
251 3 C 15.8624 17.8972 20.4012 0
260 6 N 18.6646 19.6933 11.8884 0
206 10 Zn 16.9258 15.2252 16.6643 0
218 4 H 17.3464 18.4856 13.8703 0
243 3 C 17.1448 20.6292 13.7029 0
244 3 C 16.9532 19.3865 14.3237 0
245 3 C 16.2024 19.2851 15.5095 0
246 3 C 15.7262 20.4335 16.1425 0
247 3 C 17.8372 20.7498 12.3929 0
248 3 C 15.6192 16.0741 12.7043 0
253 3 C 15.9751 15.215 11.6599 0
254 3 C 16.049 15.7194 19.4522 0
255 3 C 15.5613 15.6024 14.0737 0
256 3 C 15.9551 17.9676 16.0808 0
265 9 O 16.6078 15.0848 14.5906 0
266 9 O 17.1102 15.4752 18.7759 0
267 9 O 16.9726 17.2754 16.4144 0
483 4 H 21.4989 18.0666 17.0393 0
507 3 C 21.2533 16.0136 16.4012 0
508 3 C 19.8584 16.0277 16.6022 0
509 3 C 21.9966 17.179 16.6636 0
531 5 N 19.1641 15.063 16.3838 0
479 4 H 27.6959 15.3052 13.0188 0
480 4 H 25.2632 15.2409 13.6212 0
505 3 C 23.313 14.9289 15.6584 0
484 4 H 23.9241 18.1394 16.6133 0
485 4 H 26.161 16.8013 17.5235 0
486 4 H 26.6513 17.8501 16.151 0
487 4 H 27.8795 15.1567 17.0007 0
488 4 H 28.666 16.7695 16.8682 0
499 3 C 29.6784 15.4584 14.6402 0
500 3 C 28.3428 15.7516 14.9809 0
501 1 C 27.4071 15.5957 14.0261 0
502 3 C 25.9639 15.6439 14.3418 0
503 3 C 25.5113 16.1444 15.5648 0
504 3 C 24.0536 16.1 15.8988 0
510 3 C 23.3826 17.2213 16.4212 0
511 2 C 26.5289 16.7937 16.4747 0
512 2 C 27.9132 16.0937 16.4051 0
530 5 N 30.5785 15.4487 15.444 0
456 3 C 35.3474 15.7361 10.3714 0
377 3 C 35.2667 21.679 15.5729 0
259 5 N 38.4487 15.063 16.3835 0
477 11 Zn 32.5935 15.398 17.0116 0
478 10 Zn 36.2104 15.2252 16.6643 0
490 4 H 36.631 18.4856 13.8709 0
491 4 H 34.4929 20.3597 17.0919 0
492 4 H 38.3386 19.9875 10.9633 0
493 4 H 37.3394 18.8692 11.6943 0
494 4 H 34.6469 15.303 16.8173 0
495 4 H 34.2634 18.0537 13.2569 0
496 4 H 35.1838 18.2707 19.3828 0
498 4 H 34.647 15.3015 16.8181 0
515 3 C 36.4296 20.6291 13.7035 0
516 3 C 36.2379 19.3865 14.3242 0
517 3 C 35.4871 19.2851 15.5101 0
518 3 C 35.011 20.4336 16.143 0
519 3 C 37.122 20.7497 12.3935 0
520 3 C 34.9036 16.0744 12.7046 0
521 3 C 34.5976 17.4195 12.4485 0
522 3 C 34.7385 17.9543 11.1669 0
523 3 C 35.1462 17.8963 20.401 0
525 3 C 35.2595 15.2154 11.6601 0
526 3 C 35.3335 15.7183 19.4527 0
527 3 C 34.8459 15.6025 14.0741 0
528 3 C 35.2399 17.9675 16.0814 0
532 6 N 37.9494 19.6933 11.8891 0
533 7 N 34.463 19.3427 10.9003 0
535 8 O 34.053 20.1047 11.8253 0
536 8 O 34.6551 20.6167 20.0145 0
537 9 O 35.8923 15.0846 14.5906 0
538 9 O 36.3946 15.4755 18.7756 0
539 9 O 36.2575 17.2752 16.4143 0
541 9 O 34.0365 17.5015 16.1386 0
542 9 O 34.172 15.685 18.9354 0
543 9 O 33.793 15.843 14.7613 0
ITEM: TIMESTEP
2500
ITEM: NUMBER OF ATOMS
544
ITEM: BOX BOUNDS xy xz yz pp pp pp
6.7464916729936419e-01 4.4489352952231741e+01 2.4257039140077916e+00
-1.0809294212868537e-01 2.2185301199377111e+01 4.1692607055234898e+00
6.3078787800220582e-02 2.0474023832199769e+01 1.4815232472483590e+00
ITEM: ATOMS id type element x y z q
4 4 H 8.24145 2.94759 3.44913 0
5 4 H 6.71687 2.61986 5.67115 0
6 4 H 4.31826 2.72609 6.07161 0
7 4 H 4.3127 6.88603 4.89975 0
8 4 H 6.73252 6.75812 4.49638 0
9 4 H 8.84124 5.95471 6.44296 0
27 3 C 8.35637 4.60441 4.83209 0
28 3 C 6.90184 4.68157 5.06388 0
29 3 C 6.19924 3.55503 5.50249 0
30 3 C 4.82569 3.62006 5.73046 0
31 3 C 4.12377 4.82254 5.51723 0
32 3 C 2.74866 4.91609 5.723 0
33 3 C 4.82825 5.94947 5.07741 0
34 3 C 6.20847 5.87888 4.85088 0
10 4 H 9.35835 6.50089 4.81117 0
26 3 C 8.88721 3.65075 3.96052 0
35 2 C 9.27457 5.61546 5.47832 0
1 11 Zn 14.9966 4.55051 6.98795 0
3 4 H 10.719 2.92965 2.9546 0
11 4 H 10.6412 4.35484 6.61821 0
12 4 H 11.3624 5.86719 5.97785 0
19 4 H 16.7151 7.34294 3.26627 0
23 3 C 12.5645 3.99287 4.38002 0
24 3 C 11.2025 4.22933 4.54694 0
25 1 C 10.346 3.58461 3.73848 0
36 2 C 10.6763 5.02652 5.73549 0
45 3 C 16.641 6.68573 2.4155 0
54 5 N 13.317 4.2045 5.28826 0
65 9 O 16.4471 6.5412 5.92077 0
66 9 O 16.7637 4.87112 8.88372 0
67 9 O 16.1586 4.97404 4.73078 0
68 9 O 15.9642 2.11015 6.36541 0
18 4 H 16.952 4.18205 6.73744 0
22 4 H 16.9532 4.18026 6.73575 0
46 3 C 16.134 7.19167 1.21125 0
21 4 H 16.9804 3.39338 1.56403 0
44 3 C 16.9561 5.31974 2.56183 0
49 3 C 16.7852 4.45385 1.46402 0
51 3 C 17.1401 4.81418 3.92944 0
52 3 C 17.6806 6.90696 6.03907 0
53 3 C 17.0583 1.45895 6.212 0
116 3 C 16.1958 4.95478 0.283062 0
61 9 O 18.2165 4.27139 4.3398 0
115 3 C 15.8905 6.31412 0.163934 0
2 10 Zn 18.4821 4.0809 6.51832 0
13 4 H 18.4159 0.818899 4.08294 0
50 3 C 17.9417 4.66955 9.32844 0
62 9 O 18.7704 4.00065 8.64683 0
63 9 O 18.5685 6.14922 6.55207 0
64 9 O 18.1956 2.01905 6.38781 0
278 4 H 22.7805 2.59482 5.85886 0
279 4 H 23.0034 6.91495 5.58939 0
302 3 C 23.3319 3.51034 5.69994 0
303 3 C 22.6917 4.76238 5.76167 0
304 3 C 21.3168 4.87263 6.02141 0
305 3 C 23.4498 5.92615 5.54875 0
327 5 N 20.6552 3.89592 6.26387 0
14 4 H 19.3507 6.95455 4.00473 0
277 4 H 25.1892 2.44484 5.37618 0
280 4 H 25.3994 6.71986 5.04752 0
300 3 C 25.4558 4.58043 5.18845 0
301 3 C 24.7004 3.41318 5.42785 0
306 3 C 24.8146 5.83059 5.2467 0
20 4 H 17.7937 7.23654 9.27639 0
58 8 O 22.5462 20.194 2.78995 0
275 4 H 29.1774 2.79915 2.87415 0
276 4 H 26.7262 2.89073 3.42737 0
281 4 H 27.4845 5.83297 6.48248 0
282 4 H 27.9105 6.36072 4.81877 0
283 4 H 29.3029 4.17385 6.55752 0
284 4 H 29.9816 5.70431 5.85442 0
295 3 C 31.1001 3.80376 4.29048 0
296 3 C 29.7514 4.05763 4.46513 0
297 1 C 28.8576 3.46619 3.67087 0
298 3 C 27.3987 3.56402 3.95677 0
299 3 C 26.9089 4.47738 4.90265 0
307 2 C 27.8559 5.4785 5.49238 0
308 2 C 29.2656 4.86707 5.68375 0
326 5 N 31.8849 4.03702 5.17233 0
273 11 Zn 33.6501 4.4411 6.79232 0
293 4 H 35.5521 3.30443 1.45232 0
337 9 O 35.0122 6.52887 5.80989 0
339 9 O 34.8045 4.90187 4.54739 0
340 9 O 34.6934 2.09948 6.04202 0
55 5 N 39.3419 3.97712 6.14056 0
274 10 Zn 37.1583 4.1122 6.35177 0
285 4 H 37.3028 0.848295 3.8362 0
290 4 H 35.6306 4.17968 6.55356 0
291 4 H 35.3938 7.30016 3.04364 0
294 4 H 35.6337 4.17903 6.5523 0
316 3 C 35.5954 5.2633 2.389 0
317 3 C 35.2975 6.62514 2.21145 0
318 3 C 34.8076 7.10726 0.992626 0
319 3 C 36.8455 6.79688 10.1042 0
321 3 C 35.3816 4.36581 1.32244 0
322 3 C 36.5864 4.60346 9.17383 0
323 3 C 35.8043 4.80459 3.76201 0
324 3 C 36.228 6.94498 5.9457 0
325 3 C 35.8047 1.48094 5.88963 0
333 9 O 36.9131 4.34671 4.18899 0
334 9 O 37.4322 3.96926 8.48524 0
335 9 O 37.1521 6.20802 6.43861 0
336 9 O 36.9259 2.05155 6.1283 0
338 9 O 35.4118 4.79113 8.71785 0
286 4 H 37.855 7.11 3.89973 0
388 3 C 34.7904 4.84566 0.131827 0
292 4 H 36.4647 7.16357 9.15559 0
330 8 O 4.30809 20.1312 2.66273 0
141 4 H 7.99089 13.0265 6.21501 0
142 4 H 5.60996 13.3165 6.67967 0
165 3 C 7.39567 13.6257 5.53834 0
166 3 C 6.03128 13.7981 5.80592 0
288 4 H 2.76192 8.11445 1.07328 0
328 6 N 1.93888 8.04269 1.71533 0
466 8 O 3.06907 9.81382 2.7658 0
289 4 H 38.3068 8.23216 1.13818 0
163 3 C 9.46237 14.0792 4.18003 0
164 3 C 7.99185 14.226 4.41584 0
167 3 C 5.22723 14.5766 4.94891 0
140 4 H 9.51637 11.9247 4.34322 0
162 3 C 10.1028 12.8311 4.24961 0
57 7 N 15.7789 8.58426 1.07196 0
59 8 O 16.5465 9.46387 1.56525 0
139 4 H 12.0274 11.765 4.54204 0
204 9 O 17.4685 12.3702 6.33535 0
15 4 H 17.295 9.51863 6.79701 0
159 3 C 13.5328 13.6479 5.47806 0
190 5 N 14.166 14.576 5.9101 0
154 4 H 18.3152 14.4961 6.79893 0
158 4 H 18.3171 14.4974 6.79894 0
42 3 C 17.9702 9.39615 5.95902 0
157 4 H 18.0092 13.7974 1.62997 0
161 1 C 11.5781 12.7537 4.48135 0
160 3 C 12.2823 13.8422 4.86603 0
41 3 C 18.199 8.12057 5.41674 0
189 3 C 18.6121 11.8471 6.05691 0
185 3 C 17.6925 14.8312 1.56834 0
60 8 O 17.2153 9.58792 10.3585 0
16 4 H 21.4469 7.98839 1.06023 0
17 4 H 19.79 8.20306 1.21828 0
56 6 N 20.6515 7.91157 1.73584 0
39 3 C 19.8268 9.03987 3.85455 0
40 3 C 19.1337 7.94975 4.37873 0
43 3 C 20.8525 8.84934 2.80374 0
149 4 H 20.1728 11.1526 4.03057 0
173 3 C 18.6981 10.496 5.46536 0
174 3 C 19.6059 10.3078 4.40592 0
194 8 O 21.9076 9.56842 2.82703 0
200 9 O 19.7069 12.5082 6.18025 0
414 4 H 24.2376 13.5177 6.3704 0
438 3 C 24.7146 14.3249 5.82772 0
138 10 Zn 19.834 14.5677 6.46179 0
197 9 O 19.3606 14.8667 4.34814 0
463 5 N 21.9896 14.6448 6.08345 0
413 4 H 26.6434 13.389 5.9729 0
437 3 C 26.0883 14.241 5.6015 0
198 9 O 20.3297 14.3522 8.54017 0
411 4 H 30.5206 13.9127 2.43295 0
412 4 H 28.019 13.8869 2.93614 0
419 4 H 30.2968 14.2631 6.32891 0
433 1 C 30.1533 14.3183 3.37378 0
329 7 N 34.5228 8.50812 0.807801 0
331 8 O 35.2628 9.35524 1.39099 0
332 8 O 35.8867 9.51327 10.2378 0
287 4 H 35.7667 9.54363 6.77884 0
311 3 C 38.2078 9.21792 3.7444 0
312 3 C 37.5921 8.09039 4.283 0
313 3 C 36.6808 8.19986 5.34585 0
314 3 C 36.4121 9.45865 5.91335 0
315 3 C 39.2474 9.07561 2.70614 0
421 4 H 38.4542 11.3421 3.92379 0
429 4 H 36.8087 13.559 1.43338 0
445 3 C 37.0742 10.5932 5.40318 0
446 3 C 37.9354 10.4674 4.30249 0
461 3 C 37.0111 11.9228 6.02236 0
472 9 O 38.1241 12.4968 6.30041 0
476 9 O 35.894 12.5467 6.09026 0
191 5 N 40.5495 14.4331 6.20048 0
410 10 Zn 38.3508 14.5721 6.38326 0
426 4 H 36.8157 14.6257 6.56985 0
430 4 H 36.8149 14.6243 6.56881 0
469 9 O 38.1333 14.6798 4.1966 0
457 3 C 36.6568 14.6213 1.28463 0
470 9 O 38.6156 14.5525 8.49904 0
459 3 C 37.0245 15.1 3.73728 0
143 4 H 5.22657 15.7726 3.14524 0
144 4 H 7.61859 15.4988 2.70716 0
145 4 H 9.79165 16.2171 4.12393 0
168 3 C 3.85651 14.7595 5.16759 0
169 3 C 5.81572 15.1708 3.82633 0
170 3 C 7.18562 15.012 3.57197 0
424 4 H 4.00831 18.3579 1.04177 0
464 6 N 3.20813 18.2855 1.71186 0
425 4 H 39.5541 18.4232 1.15343 0
147 4 H 11.3159 15.4751 5.90245 0
137 11 Zn 16.3448 14.6627 7.25906 0
146 4 H 10.6862 15.2732 2.88779 0
171 2 C 10.3453 15.2723 3.94597 0
148 4 H 12.3089 15.9867 4.50447 0
155 4 H 17.4298 17.6665 3.44359 0
172 2 C 11.5942 15.2121 4.85924 0
181 3 C 17.3722 17.0183 2.58259 0
193 7 N 16.3637 18.8724 1.26443 0
201 9 O 17.485 16.8329 6.26158 0
202 9 O 18.2879 14.9961 9.00058 0
203 9 O 17.2452 15.1811 4.90044 0
151 4 H 18.2401 19.9012 7.05283 0
182 3 C 16.8074 17.5053 1.38799 0
180 3 C 17.8171 15.6896 2.68622 0
187 3 C 18.1745 15.2019 4.0277 0
252 3 C 17.0277 15.2999 0.404301 0
195 8 O 17.0044 19.7767 1.8759 0
251 3 C 16.6104 16.6299 0.329907 0
38 3 C 20.3206 20.7674 4.48336 0
196 8 O 19.6238 19.8731 9.63182 0
37 3 C 19.4894 20.9236 5.60555 0
152 4 H 22.4144 18.2489 1.36551 0
153 4 H 20.7412 18.17 1.47755 0
156 4 H 19.7801 17.4339 9.04838 0
192 6 N 21.6211 18.173 2.04362 0
150 4 H 20.1802 17.4141 4.11109 0
175 3 C 20.5681 19.5094 3.93089 0
176 3 C 19.9365 18.4 4.48899 0
177 3 C 19.0662 18.5321 5.58791 0
178 3 C 18.8383 19.7997 6.15622 0
179 3 C 21.597 19.343 2.87408 0
186 3 C 19.51 14.8865 9.33726 0
188 3 C 18.6941 17.2858 6.2495 0
199 9 O 19.6924 16.5895 6.63231 0
415 4 H 24.1069 17.3076 4.26256 0
439 3 C 23.9732 15.4339 5.34645 0
440 3 C 22.5873 15.5287 5.52562 0
441 3 C 24.6445 16.4504 4.64984 0
442 3 C 26.0226 16.3647 4.4361 0
416 4 H 26.5252 17.1582 3.89585 0
436 3 C 26.7455 15.2538 4.90143 0
431 3 C 32.3693 14.6081 4.08979 0
462 5 N 33.1596 14.7227 4.9862 0
434 3 C 28.6954 14.3984 3.60882 0
432 3 C 31.0039 14.7067 4.33456 0
417 4 H 28.6965 16.1164 6.54022 0
418 4 H 29.3439 16.9045 5.04815 0
420 4 H 31.1951 15.8224 6.21128 0
435 3 C 28.1934 15.1545 4.67229 0
443 2 C 29.1451 15.928 5.54037 0
444 2 C 30.4672 15.159 5.69439 0
409 11 Zn 34.8275 14.9311 6.71137 0
310 3 C 39.1841 20.7994 4.21041 0
309 3 C 38.2773 20.9579 5.27167 0
422 4 H 39.0617 17.4383 3.84484 0
423 4 H 36.9271 19.9398 6.62854 0
427 4 H 36.6183 17.5855 2.95304 0
428 4 H 37.3954 17.69 9.21326 0
447 3 C 39.4609 19.5367 3.68282 0
448 3 C 38.8023 18.4285 4.20569 0
449 3 C 37.8586 18.5692 5.23275 0
450 3 C 37.5884 19.8373 5.77698 0
451 3 C 40.5095 19.3599 2.65841 0
452 3 C 36.8284 15.5311 2.34548 0
453 3 C 36.5467 16.8928 2.13054 0
454 3 C 36.1229 17.368 0.8793 0
458 3 C 37.7208 15.1388 9.172 0
460 3 C 37.4151 17.3342 5.85669 0
465 7 N 35.8661 18.7646 0.650353 0
467 8 O 36.6054 19.6199 1.21768 0
468 8 O 36.8107 20.0178 10.2679 0
471 9 O 38.3468 16.6247 6.36499 0
473 9 O 36.2037 16.9138 5.74312 0
474 9 O 36.5472 15.2812 8.69084 0
475 9 O 36.0271 15.2195 4.51299 0
524 3 C 36.1332 15.1 0.0628885 0
73 4 H 8.6233 3.08558 15.6251 0
74 4 H 6.23295 3.29741 16.0651 0
96 3 C 8.98428 5.20939 15.3849 0
97 3 C 8.20199 4.07814 15.6465 0
98 3 C 6.81707 4.19922 15.9155 0
99 3 C 6.21318 5.47126 15.9769 0
100 3 C 4.8417 5.59622 16.1986 0
101 3 C 7.00038 6.60995 15.7751 0
102 3 C 8.36417 6.49024 15.4681 0
72 4 H 10.1998 3.38856 13.8411 0
95 3 C 10.4283 5.09328 15.1022 0
77 4 H 11.0239 6.6278 16.5063 0
94 3 C 10.9182 4.08935 14.2405 0
103 2 C 11.4119 6.1267 15.5958 0
69 11 Zn 17.1475 5.21758 17.0242 0
71 4 H 12.7407 3.25519 13.2045 0
79 4 H 12.73 4.87898 16.8071 0
80 4 H 13.4966 6.30862 16.0104 0
91 3 C 14.6214 4.32147 14.566 0
92 3 C 13.2574 4.57566 14.7382 0
93 1 C 12.3559 3.93687 13.9608 0
104 2 C 12.777 5.46966 15.869 0
122 5 N 15.415 4.62841 15.399 0
135 9 O 18.3519 5.68978 14.8063 0
136 9 O 18.3108 2.91915 16.3719 0
47 3 C 18.2145 6.89108 10.2163 0
133 9 O 18.4727 7.34867 16.0195 0
113 3 C 19.0106 7.37309 12.4292 0
134 9 O 18.8287 5.72671 19.0385 0
86 4 H 19.1463 5.06549 16.887 0
90 4 H 19.1487 5.0671 16.8845 0
48 3 C 18.4183 5.52453 10.4299 0
70 10 Zn 20.673 5.05553 16.7462 0
81 4 H 21.3688 1.58068 14.6898 0
89 4 H 19.1135 4.01284 11.8189 0
112 3 C 19.2449 6.00937 12.6694 0
117 3 C 18.9948 5.07405 11.6406 0
118 3 C 19.9976 5.61401 19.5335 0
119 3 C 19.3912 5.59966 14.0703 0
121 3 C 19.4542 2.34646 16.3034 0
129 9 O 20.4881 5.18518 14.5648 0
130 9 O 20.8938 5.00554 18.8872 0
132 9 O 20.5308 2.97656 16.5974 0
346 4 H 24.9502 3.65981 16.3458 0
370 3 C 25.5142 4.5614 16.1398 0
371 3 C 24.8912 5.83082 16.1166 0
372 3 C 23.5143 5.96963 16.3102 0
373 3 C 25.6674 6.96627 15.8435 0
395 5 N 22.8427 5.00749 16.5782 0
131 9 O 20.5807 7.13042 16.7843 0
369 3 C 26.8721 4.43351 15.8655 0
374 3 C 27.0348 6.83259 15.5778 0
343 4 H 31.195 3.66051 13.133 0
344 4 H 28.7842 3.74752 13.8761 0
345 4 H 27.3195 3.44765 15.8742 0
349 4 H 29.7406 6.77861 16.7554 0
351 4 H 31.4391 5.05763 16.7822 0
352 4 H 32.1771 6.55302 16.118 0
363 3 C 33.2146 4.69268 14.3757 0
364 3 C 31.8628 4.95518 14.6568 0