Created by Ryther's code on 2025-07-29 22:47:08.176439, modified by xyan11@uic.edu. 

    648 atoms
    744 bonds
    1520 angles
    1424 dihedrals
    256 impropers

    8 atom types
    16 bond types
    34 angle types
    9 dihedral types
    2 improper types

0.00000000 46.64474029 xlo xhi
0.00000000 30.9819902 ylo yhi
0.00000000 21.19695795 zlo zhi
0.13567337 0.51352098 2.60205777 xy xz yz 

Masses 

    1    12.0107  #   C
    2    12.0107  #   C
    3    1.00794  #   H
    4    14.0067  #   N
    5    15.9994  #   O
    6    15.9994  #   O
    7    15.9994  #   O
    8      65.38  #  Zn

Pair Coeffs

    1       0.10500      3.43085  #  C_3 C_3
    2       0.10500      3.43085  #  C_R C_R
    3       0.04400      2.57113  #  H_ H_
    4       0.06900      3.26069  #  N_2 N_2
    5       0.06000      3.11815  #  O_2_M O_2_M
    6       0.06000      3.11815  #  O_3 O_3
    7       0.06000      3.11815  #  O_3_M O_3_M
    8       0.12400      2.46155  #  Zn4+2 Zn4+2

Bond Coeffs

    1      48.90184      1.84943  #  H_ Zn4+2 bond order=0.5
    2     104.44141      2.12294  #  O_2_M Zn4+2 bond order=0.5
    3     103.61325      2.20128  #  N_2 Zn4+2 bond order=0.5
    4     100.76218      2.14847  #  O_3_M Zn4+2 bond order=0.5
    5     357.44038      1.08142  #  C_R H_ bond order=1.0
    6     331.06939      1.10940  #  C_3 H_ bond order=1.0
    7     559.99521      0.99025  #  H_ O_3_M bond order=1.0
    8     931.53598      1.20133  #  C_R N_2 bond order=3.0
    9     462.65505      1.37926  #  C_R C_R bond order=1.5
    10    572.46041      1.36631  #  C_R O_3 bond order=1.0
    11    539.20166      1.39385  #  C_3 O_3 bond order=1.0
    12    349.79590      1.51400  #  C_3 C_3 bond order=1.0
    13    369.94394      1.48600  #  C_3 C_R bond order=1.0
    14    391.66951      1.45800  #  C_R C_R bond order=1.0
    15    714.55744      1.26901  #  C_R O_2_M bond order=1.5
    16    678.02790      1.29140  #  C_R O_3_M bond order=1.5

Angle Coeffs

    1  cosine/periodic         36.20045            1            4  #  H_ Zn4+2 O_2_M
    2  cosine/periodic         14.11273            1            4  #  H_ Zn4+2 H_
    3  cosine/periodic         37.39156            1            4  #  H_ Zn4+2 N_2
    4  cosine/periodic         97.36576            1            4  #  O_2_M Zn4+2 O_2_M
    5  cosine/periodic        101.82219            1            4  #  N_2 Zn4+2 O_2_M
    6  cosine/periodic         35.40556            1            4  #  H_ Zn4+2 O_3_M
    7  cosine/periodic         95.61832            1            4  #  O_2_M Zn4+2 O_3_M
    8  cosine/periodic        100.10309            1            4  #  N_2 Zn4+2 O_3_M
    9  cosine/periodic         11.23300            1            1  #  Zn4+2 H_ Zn4+2
    10 cosine/periodic         43.63912            1            1  #  O_3_M H_ Zn4+2
    11 cosine/periodic        179.74893           -1            3  #  C_R C_R N_2
    12 cosine/periodic        111.29751           -1            3  #  C_R C_R C_R
    13 cosine/periodic         57.28902           -1            3  #  C_R C_R H_
    14 cosine/periodic        135.76992           -1            3  #  C_R C_R O_3
    15 fourier                 75.49653      0.34375      0.37500      0.28125  #  H_ C_3 H_
    16 fourier                165.75867      0.34375      0.37500      0.28125  #  H_ C_3 O_3
    17 fourier                117.31542      0.34375      0.37500      0.28125  #  C_3 C_3 H_
    18 fourier                289.99897      0.34375      0.37500      0.28125  #  C_3 C_3 O_3
    19 fourier                121.77380      0.34375      0.37500      0.28125  #  C_R C_3 H_
    20 fourier                298.92298      0.34375      0.37500      0.28125  #  C_R C_3 O_3
    21 cosine/periodic         99.13715           -1            3  #  C_3 C_R C_R
    22 cosine/periodic         51.62857           -1            3  #  C_R C_R H_
    23 cosine/periodic        102.18328           -1            3  #  C_R C_R C_R
    24 cosine/periodic        137.71425           -1            3  #  C_R C_R O_2_M
    25 cosine/periodic        206.77843           -1            3  #  O_2_M C_R O_2_M
    26 cosine/periodic        134.57449           -1            3  #  C_R C_R O_3_M
    27 cosine/periodic        201.38050           -1            3  #  O_2_M C_R O_3_M
    28 fourier                 84.89470      0.36401      0.41847      0.28800  #  C_R N_2 Zn4+2
    29 fourier                320.94891      0.30023      0.26733      0.26675  #  C_3 O_3 C_R
    30 fourier                311.60110      0.30023      0.26733      0.26675  #  C_3 O_3 C_3
    31 cosine/periodic         37.72922           -1            3  #  C_R O_2_M Zn4+2
    32 fourier                203.65891      0.30023      0.26733      0.26675  #  C_R O_3_M H_
    33 fourier                 41.31289      0.30023      0.26733      0.26675  #  H_ O_3_M Zn4+2
    34 fourier                 99.02913      0.30023      0.26733      0.26675  #  C_R O_3_M Zn4+2

Dihedral Coeffs

    1      27.96100           -1            2  #  X C_R N_2 X bond order=3.0
    2       6.73711           -1            2  #  X C_R C_R X bond order=1.5
    3       0.23717           -1            2  #  X C_R O_3 X bond order=1.0
    4       0.03255            1            3  #  X C_3 O_3 X bond order=1.0
    5       0.11772            1            3  #  X C_3 C_3 X bond order=1.0
    6       0.16667           -1            6  #  X C_3 C_R X bond order=1.0
    7       1.25000           -1            2  #  X C_R C_R X bond order=1.0
    8       6.73711           -1            2  #  X C_R O_2_M X bond order=1.5
    9       0.31957           -1            2  #  X C_R O_3_M X bond order=1.5

Improper Coeffs

    1       2.00000      1.00000     -1.00000      0.00000            1  #  C_R X X X O_2 present=False
    2      16.66667      1.00000     -1.00000      0.00000            1  #  C_R X X X O_2 present=True

Atoms # a, b, c, alpha, beta, gamma: 46.6447402934, 30.9822872640, 21.3622432009, 82.9976246927, 88.6225501208, 89.7490974063 $$$atoms$$$

    1 1     8      0.00000     14.64450     15.51411      5.54251   #   Zn1   0.30968691   0.47878560   0.26147683
    2 1     8      0.00000     17.57393     15.53118      5.46941   #   Zn2   0.37252551   0.47962636   0.25802792
    3 1     3      0.00000      9.73771     14.97337      7.47964   #    H1   0.20355906   0.45365709   0.35286398
    4 1     3      0.00000      7.32583     14.51991      7.24723   #    H2   0.15201210   0.43994152   0.34189975
    5 1     3      0.00000      7.74368     14.56289      2.95363   #    H3   0.16314675   0.45834103   0.13934234
    6 1     3      0.00000     10.13970     15.01358      3.18951   #    H4   0.21435213   0.47195318   0.15047033
    7 1     3      0.00000      5.33903     15.03917      3.19906   #    H5   0.11142510   0.47274144   0.15092059
    8 1     3      0.00000      5.66585     13.25469      3.21213   #    H6   0.11859254   0.41509231   0.15153734
    9 1     3      0.00000      3.72274     12.90817      4.71929   #    H7   0.07620192   0.39793592   0.22264019
   10 1     3      0.00000      3.36343     14.65378      4.73520   #    H8   0.06832677   0.45421580   0.22339034
   11 1     3      0.00000      3.09168     15.69946      2.59598   #    H9   0.06348906   0.49644270   0.12246950
   12 1     3      0.00000      2.30499     14.71131      1.35341   #   H10   0.04734744   0.46947195   0.06384907
   13 1     3      0.00000      0.21707     13.27271      2.08785   #   H11   0.00234728   0.42012848   0.09849776
   14 1     3      0.00000     21.33108     13.53412      3.14593   #   H12   0.45444123   0.42437344   0.14841441
   15 1     3      0.00000     22.70720      1.47692      5.31426   #   H13   0.48397405   0.02661413   0.25070870
   16 1     3      0.00000      1.59187      1.21837      4.25901   #   H14   0.03185026   0.02245003   0.20092535
   17 1     3      0.00000     16.17736     14.98595      5.96917   #   H15   0.34238236   0.46004781   0.28160505
   18 1     3      0.00000     16.35526     11.40291      6.72078   #   H16   0.34615101   0.34142066   0.31706347
   19 1     3      0.00000     15.65550     10.82054      3.79885   #   H17   0.33268750   0.33420089   0.17921696
   20 1     3      0.00000     17.25703      9.39366      6.96637   #   H18   0.36554758   0.27559556   0.32864932
   21 1     3      0.00000     17.32760      7.02498      7.50927   #   H19   0.36700717   0.19699090   0.35426186
   22 1     3      0.00000     14.89369      6.16064      4.04556   #   H20   0.31666768   0.18281672   0.19085550
   23 1     3      0.00000     14.82313      8.52933      3.50265   #   H21   0.31520814   0.26142137   0.16524295
   24 1     3      0.00000     16.49523      4.73376      7.21307   #   H22   0.34952787   0.12421136   0.34028781
   25 1     3      0.00000     15.79545      4.15139      4.29114   #   H23   0.33606401   0.11699151   0.20244146
   26 1     3      0.00000     16.04118     16.05935      5.04276   #   H24   0.33983257   0.49836441   0.23790003
   27 1     3      0.00000     16.98472      0.69195      4.65893   #   H25   0.36169833   0.00387442   0.21979229
   28 1     3      0.00000     14.31505     13.69761      1.62111   #   H26   0.30478602   0.43569219   0.07647863
   29 1     3      0.00000     14.51314     14.70135      9.79780   #   H27   0.30478602   0.43569221   0.46222662
   30 1     3      0.00000     17.83499      1.85621      9.39131   #   H28   0.37741441   0.02270233   0.44305005
   31 1     3      0.00000     17.63688      0.85236      1.21379   #   H29   0.37741440   0.02270232   0.05726224
   32 1     3      0.00000     17.02017      0.87158      6.12227   #   H30   0.36169842   0.00387427   0.28882779
   33 1     2      0.00000     11.51287     15.28952      5.48441   #    C1   0.24259966   0.47176679   0.25873555
   34 1     2      0.00000     10.10433     15.02465      5.35019   #    C2   0.21249541   0.46374959   0.25240384
   35 1     2      0.00000      9.30458     14.88419      6.49054   #    C3   0.19478389   0.45469751   0.30620154
   36 1     2      0.00000      7.93646     14.62694      6.35961   #    C4   0.16554408   0.44691326   0.30002445
   37 1     2      0.00000      7.35295     14.50740      5.09218   #    C5   0.15368921   0.44807666   0.24023149
   38 1     2      0.00000      8.16158     14.64940      3.94724   #    C6   0.17159328   0.45719625   0.18621705
   39 1     2      0.00000      9.53002     14.90672      4.07882   #    C7   0.20083987   0.46498029   0.19242487
   40 1     1      0.00000      5.25171     14.10579      3.79543   #    C8   0.10933767   0.44025184   0.17905550
   41 1     1      0.00000      3.78327     13.83307      4.10733   #    C9   0.07772352   0.43021332   0.19376997
   42 1     1      0.00000      2.44772     14.80058      2.45112   #   C10   0.04984139   0.46800390   0.11563534
   43 1     2      0.00000      1.09545     14.97679      3.08921   #   C11   0.02051006   0.47116309   0.14573816
   44 1     2      0.00000     23.37783     14.08327      2.78785   #   C12   0.49845098   0.44351710   0.13152120
   45 1     2      0.00000     22.12425     14.23079      3.38963   #   C13   0.47125654   0.44589420   0.15991097
   46 1     2      0.00000     21.90067     15.27052      4.30076   #   C14   0.46590286   0.47584340   0.20289530
   47 1     2      0.00000     20.61045     15.42153      4.92092   #   C15   0.43791318   0.47826037   0.23215232
   48 1     2      0.00000     22.86839      0.67063      4.60872   #   C16   0.48786379   0.00338517   0.21742387
   49 1     2      0.00000      0.79987      0.52401      4.00718   #   C17   0.01506390   0.00103638   0.18904492
   50 1     2      0.00000     16.13645     11.59870      5.68059   #   C18   0.34196974   0.35186152   0.26799077
   51 1     2      0.00000     15.93337     10.58982      4.82108   #   C19   0.33814721   0.32270386   0.22744185
   52 1     2      0.00000     16.01146      9.15644      5.19770   #   C20   0.33976467   0.27494639   0.24520975
   53 1     2      0.00000     16.72099      8.70626      6.32728   #   C21   0.35444467   0.25594065   0.29849940
   54 1     2      0.00000     16.77398      7.34354      6.63407   #   C22   0.35555284   0.21074058   0.31297297
   55 1     2      0.00000     16.13927      6.39787      5.81422   #   C23   0.34245061   0.18346585   0.27429507
   56 1     2      0.00000     15.42974      6.84804      4.68464   #   C24   0.32777063   0.20247159   0.22100542
   57 1     2      0.00000     15.37674      8.21077      4.37785   #   C25   0.32666242   0.24767166   0.20653185
   58 1     2      0.00000     16.21736      4.96448      6.19085   #   C26   0.34406810   0.13570838   0.29206297
   59 1     2      0.00000     16.01427      3.95561      5.33133   #   C27   0.34024542   0.10655069   0.25151411
   60 1     2      0.00000     16.01486     15.04420      1.60842   #   C28   0.34110759   0.47920610   0.07587982
   61 1     2      0.00000     15.04740     14.21553      1.01437   #   C29   0.32074622   0.45481281   0.04785470
   62 1     2      0.00000     15.27056     15.34627     10.22570   #   C30   0.32074621   0.45481284   0.48241363
   63 1     2      0.00000     16.20370     16.00110      9.40350   #   C31   0.34110757   0.47920612   0.44362504
   64 1     2      0.00000     17.10253      1.33816      9.99759   #   C32   0.36145213   0.00357920   0.47165209
   65 1     2      0.00000     16.87938      0.20742      0.78637   #   C33   0.36145213   0.00357919   0.03709824
   66 1     2      0.00000     16.16834     15.76699      7.93243   #   C34   0.34111864   0.47747851   0.37422513
   67 1     2      0.00000     16.05012     15.27832      3.07949   #   C35   0.34109447   0.48093401   0.14527961
   68 1     2      0.00000     16.02319      2.46569      5.34446   #   C36   0.34056989   0.05840900   0.25213348
   69 1     2      0.00000     16.12743     13.08860      5.66746   #   C37   0.34164320   0.40000300   0.26737133
   70 1     4      0.00000     12.64524     15.50245      5.59230   #    N1   0.26680136   0.47821214   0.26382554
   71 1     4      0.00000     19.57318     15.54293      5.41951   #    N2   0.41541104   0.48020339   0.25567385
   72 1     6      0.00000      5.97650     14.24927      5.01421   #    O1   0.12424374   0.44005379   0.23655328
   73 1     6      0.00000      3.05965     13.60999      2.91065   #    O2   0.06283888   0.42775466   0.13731442
   74 1     5      0.00000     17.17366     15.36331      3.54545   #    O3   0.36493700   0.48183108   0.16726210
   75 1     5      0.00000     17.26818     15.69495      7.41098   #    O4   0.36496915   0.47721923   0.34962484
   76 1     7      0.00000     17.13789      1.97216      5.32118   #    O5   0.36452571   0.04257161   0.25103496
   77 1     5      0.00000     17.23610     13.59510      5.63525   #    O6   0.36538042   0.41647870   0.26585193
   78 1     5      0.00000     14.91449      1.95920      5.37667   #    O7   0.31683198   0.04193326   0.25365282
   79 1     5      0.00000     15.04477     15.68200      7.46647   #    O8   0.31727542   0.47658140   0.35224263
   80 1     5      0.00000     14.95025     15.35036      3.60092   #    O9   0.31724327   0.48119324   0.16987913
   81 1     5      0.00000     15.01270     13.58215      5.69073   #   O10   0.31768669   0.41584086   0.26846902
   82 1     8      0.00000     14.90126     16.81514     16.14099   #   Zn1   0.30968691   0.47878560   0.76147683
   83 1     8      0.00000     17.83069     16.83221     16.06789   #   Zn2   0.37252551   0.47962636   0.75802792
   84 1     3      0.00000      9.99447     16.27440     18.07812   #    H1   0.20355906   0.45365709   0.85286398
   85 1     3      0.00000      7.58259     15.82094     17.84571   #    H2   0.15201210   0.43994152   0.84189975
   86 1     3      0.00000      8.00044     15.86392     13.55211   #    H3   0.16314675   0.45834103   0.63934234
   87 1     3      0.00000     10.39646     16.31461     13.78799   #    H4   0.21435213   0.47195318   0.65047033
   88 1     3      0.00000      5.59579     16.34020     13.79754   #    H5   0.11142510   0.47274144   0.65092059
   89 1     3      0.00000      5.92261     14.55572     13.81061   #    H6   0.11859254   0.41509231   0.65153734
   90 1     3      0.00000      3.97950     14.20920     15.31777   #    H7   0.07620192   0.39793592   0.72264019
   91 1     3      0.00000      3.62019     15.95481     15.33367   #    H8   0.06832677   0.45421580   0.72339034
   92 1     3      0.00000      3.34844     17.00048     13.19446   #    H9   0.06348906   0.49644270   0.62246950
   93 1     3      0.00000      2.56175     16.01234     11.95189   #   H10   0.04734744   0.46947195   0.56384907
   94 1     3      0.00000      0.47383     14.57374     12.68633   #   H11   0.00234728   0.42012848   0.59849776
   95 1     3      0.00000     21.58784     14.83515     13.74441   #   H12   0.45444123   0.42437344   0.64841441
   96 1     3      0.00000     22.96396      2.77795     15.91274   #   H13   0.48397405   0.02661413   0.75070870
   97 1     3      0.00000      1.84863      2.51939     14.85749   #   H14   0.03185026   0.02245003   0.70092535
   98 1     3      0.00000     16.43412     16.28698     16.56765   #   H15   0.34238236   0.46004781   0.78160505
   99 1     3      0.00000     16.61203     12.70394     17.31926   #   H16   0.34615101   0.34142066   0.81706347
  100 1     3      0.00000     15.91226     12.12157     14.39733   #   H17   0.33268750   0.33420089   0.67921696
  101 1     3      0.00000     17.51379     10.69469     17.56484   #   H18   0.36554758   0.27559556   0.82864932
  102 1     3      0.00000     17.58436      8.32601     18.10775   #   H19   0.36700717   0.19699090   0.85426186
  103 1     3      0.00000     15.15045      7.46167     14.64403   #   H20   0.31666768   0.18281672   0.69085550
  104 1     3      0.00000     15.07989      9.83036     14.10113   #   H21   0.31520814   0.26142137   0.66524295
  105 1     3      0.00000     16.75199      6.03479     17.81155   #   H22   0.34952787   0.12421136   0.84028781
  106 1     3      0.00000     16.05221      5.45242     14.88962   #   H23   0.33606401   0.11699151   0.70244146
  107 1     3      0.00000     16.29794     17.36038     15.64124   #   H24   0.33983257   0.49836441   0.73790003
  108 1     3      0.00000     17.24148      1.99298     15.25741   #   H25   0.36169833   0.00387442   0.71979229
  109 1     3      0.00000     14.57181     14.99864     12.21959   #   H26   0.30478602   0.43569219   0.57647863
  110 1     3      0.00000     14.76990     16.00238     20.39628   #   H27   0.30478602   0.43569221   0.96222662
  111 1     3      0.00000     18.09175      3.15723     19.98979   #   H28   0.37741441   0.02270233   0.94305005
  112 1     3      0.00000     17.89364      2.15339     11.81226   #   H29   0.37741440   0.02270232   0.55726224
  113 1     3      0.00000     17.27693      2.17261     16.72075   #   H30   0.36169842   0.00387427   0.78882779
  114 1     2      0.00000     11.76963     16.59055     16.08289   #    C1   0.24259966   0.47176679   0.75873555
  115 1     2      0.00000     10.36109     16.32568     15.94867   #    C2   0.21249541   0.46374959   0.75240384
  116 1     2      0.00000      9.56134     16.18522     17.08902   #    C3   0.19478389   0.45469751   0.80620154
  117 1     2      0.00000      8.19322     15.92797     16.95808   #    C4   0.16554408   0.44691326   0.80002445
  118 1     2      0.00000      7.60971     15.80843     15.69066   #    C5   0.15368921   0.44807666   0.74023149
  119 1     2      0.00000      8.41834     15.95043     14.54571   #    C6   0.17159328   0.45719625   0.68621705
  120 1     2      0.00000      9.78678     16.20774     14.67730   #    C7   0.20083987   0.46498029   0.69242487
  121 1     1      0.00000      5.50847     15.40682     14.39391   #    C8   0.10933767   0.44025184   0.67905550
  122 1     1      0.00000      4.04003     15.13409     14.70581   #    C9   0.07772352   0.43021332   0.69376997
  123 1     1      0.00000      2.70448     16.10161     13.04960   #   C10   0.04984139   0.46800390   0.61563534
  124 1     2      0.00000      1.35221     16.27782     13.68768   #   C11   0.02051006   0.47116309   0.64573816
  125 1     2      0.00000     23.63459     15.38430     13.38633   #   C12   0.49845098   0.44351710   0.63152120
  126 1     2      0.00000     22.38101     15.53182     13.98811   #   C13   0.47125654   0.44589420   0.65991097
  127 1     2      0.00000     22.15743     16.57155     14.89924   #   C14   0.46590286   0.47584340   0.70289530
  128 1     2      0.00000     20.86721     16.72256     15.51940   #   C15   0.43791318   0.47826037   0.73215232
  129 1     2      0.00000     23.12515      1.97166     15.20720   #   C16   0.48786379   0.00338517   0.71742387
  130 1     2      0.00000      1.05663      1.82504     14.60566   #   C17   0.01506390   0.00103638   0.68904492
  131 1     2      0.00000     16.39321     12.89973     16.27907   #   C18   0.34196974   0.35186152   0.76799077
  132 1     2      0.00000     16.19013     11.89085     15.41955   #   C19   0.33814721   0.32270386   0.72744185
  133 1     2      0.00000     16.26822     10.45747     15.79618   #   C20   0.33976467   0.27494639   0.74520975
  134 1     2      0.00000     16.97775     10.00729     16.92576   #   C21   0.35444467   0.25594065   0.79849940
  135 1     2      0.00000     17.03074      8.64457     17.23255   #   C22   0.35555284   0.21074058   0.81297297
  136 1     2      0.00000     16.39603      7.69890     16.41270   #   C23   0.34245061   0.18346585   0.77429507
  137 1     2      0.00000     15.68650      8.14907     15.28312   #   C24   0.32777063   0.20247159   0.72100542
  138 1     2      0.00000     15.63351      9.51180     14.97633   #   C25   0.32666242   0.24767166   0.70653185
  139 1     2      0.00000     16.47412      6.26551     16.78933   #   C26   0.34406810   0.13570838   0.79206297
  140 1     2      0.00000     16.27103      5.25664     15.92981   #   C27   0.34024542   0.10655069   0.75151411
  141 1     2      0.00000     16.27162     16.34523     12.20690   #   C28   0.34110759   0.47920610   0.57587982
  142 1     2      0.00000     15.30417     15.51656     11.61285   #   C29   0.32074622   0.45481281   0.54785470
  143 1     2      0.00000     15.52732     16.64730     20.82418   #   C30   0.32074621   0.45481284   0.98241363
  144 1     2      0.00000     16.46046     17.30213     20.00198   #   C31   0.34110757   0.47920612   0.94362504
  145 1     2      0.00000     17.35929      2.63919     20.59607   #   C32   0.36145213   0.00357920   0.97165209
  146 1     2      0.00000     17.13614      1.50845     11.38485   #   C33   0.36145213   0.00357919   0.53709824
  147 1     2      0.00000     16.42510     17.06802     18.53091   #   C34   0.34111864   0.47747851   0.87422513
  148 1     2      0.00000     16.30688     16.57935     13.67796   #   C35   0.34109447   0.48093401   0.64527961
  149 1     2      0.00000     16.27995      3.76672     15.94294   #   C36   0.34056989   0.05840900   0.75213348
  150 1     2      0.00000     16.38419     14.38963     16.26594   #   C37   0.34164320   0.40000300   0.76737133
  151 1     4      0.00000     12.90200     16.80348     16.19078   #    N1   0.26680136   0.47821214   0.76382554
  152 1     4      0.00000     19.82995     16.84396     16.01799   #    N2   0.41541104   0.48020339   0.75567385
  153 1     6      0.00000      6.23326     15.55030     15.61269   #    O1   0.12424374   0.44005379   0.73655328
  154 1     6      0.00000      3.31641     14.91102     13.50913   #    O2   0.06283888   0.42775466   0.63731442
  155 1     5      0.00000     17.43042     16.66434     14.14393   #    O3   0.36493700   0.48183108   0.66726210
  156 1     5      0.00000     17.52494     16.99597     18.00946   #    O4   0.36496915   0.47721923   0.84962484
  157 1     7      0.00000     17.39465      3.27319     15.91966   #    O5   0.36452571   0.04257161   0.75103496
  158 1     5      0.00000     17.49286     14.89613     16.23373   #    O6   0.36538042   0.41647870   0.76585193
  159 1     5      0.00000     15.17125      3.26022     15.97515   #    O7   0.31683198   0.04193326   0.75365282
  160 1     5      0.00000     15.30153     16.98302     18.06495   #    O8   0.31727542   0.47658140   0.85224263
  161 1     5      0.00000     15.20701     16.65139     14.19940   #    O9   0.31724327   0.48119324   0.66987913
  162 1     5      0.00000     15.26946     14.88318     16.28921   #   O10   0.31768669   0.41584086   0.76846902
  163 1     8      0.00000     14.71233     31.00510      5.54251   #   Zn1   0.30968691   0.97878560   0.26147683
  164 1     8      0.00000     17.64177     31.02218      5.46941   #   Zn2   0.37252551   0.97962636   0.25802792
  165 1     3      0.00000      9.80555     30.46437      7.47964   #    H1   0.20355906   0.95365709   0.35286398
  166 1     3      0.00000      7.39366     30.01090      7.24723   #    H2   0.15201210   0.93994152   0.34189975
  167 1     3      0.00000      7.81151     30.05389      2.95363   #    H3   0.16314675   0.95834103   0.13934234
  168 1     3      0.00000     10.20754     30.50458      3.18951   #    H4   0.21435213   0.97195318   0.15047033
  169 1     3      0.00000      5.40687     30.53017      3.19906   #    H5   0.11142510   0.97274144   0.15092059
  170 1     3      0.00000      5.73369     28.74569      3.21213   #    H6   0.11859254   0.91509231   0.15153734
  171 1     3      0.00000      3.79058     28.39916      4.71929   #    H7   0.07620192   0.89793592   0.22264019
  172 1     3      0.00000      3.43126     30.14478      4.73520   #    H8   0.06832677   0.95421580   0.22339034
  173 1     3      0.00000      3.15951     31.19045      2.59598   #    H9   0.06348906   0.99644270   0.12246950
  174 1     3      0.00000      2.37283     30.20231      1.35341   #   H10   0.04734744   0.96947195   0.06384907
  175 1     3      0.00000      0.28491     28.76371      2.08785   #   H11   0.00234728   0.92012848   0.09849776
  176 1     3      0.00000     21.39892     29.02511      3.14593   #   H12   0.45444123   0.92437344   0.14841441
  177 1     3      0.00000     22.77504     16.96791      5.31426   #   H13   0.48397405   0.52661413   0.25070870
  178 1     3      0.00000      1.65971     16.70936      4.25901   #   H14   0.03185026   0.52245003   0.20092535
  179 1     3      0.00000     16.24520     30.47694      5.96917   #   H15   0.34238236   0.96004781   0.28160505
  180 1     3      0.00000     16.42310     26.89390      6.72078   #   H16   0.34615101   0.84142066   0.31706347
  181 1     3      0.00000     15.72333     26.31154      3.79885   #   H17   0.33268750   0.83420089   0.17921696
  182 1     3      0.00000     17.32487     24.88466      6.96637   #   H18   0.36554758   0.77559556   0.32864932
  183 1     3      0.00000     17.39544     22.51598      7.50927   #   H19   0.36700717   0.69699090   0.35426186
  184 1     3      0.00000     14.96153     21.65164      4.04556   #   H20   0.31666768   0.68281672   0.19085550
  185 1     3      0.00000     14.89096     24.02032      3.50265   #   H21   0.31520814   0.76142137   0.16524295
  186 1     3      0.00000     16.56307     20.22476      7.21307   #   H22   0.34952787   0.62421136   0.34028781
  187 1     3      0.00000     15.86329     19.64239      4.29114   #   H23   0.33606401   0.61699151   0.20244146
  188 1     3      0.00000     16.10902     31.55035      5.04276   #   H24   0.33983257   0.99836441   0.23790003
  189 1     3      0.00000     17.05255     16.18294      4.65893   #   H25   0.36169833   0.50387442   0.21979229
  190 1     3      0.00000     14.38289     29.18861      1.62111   #   H26   0.30478602   0.93569219   0.07647863
  191 1     3      0.00000     14.58098     30.19235      9.79780   #   H27   0.30478602   0.93569221   0.46222662
  192 1     3      0.00000     17.90283     17.34720      9.39131   #   H28   0.37741441   0.52270233   0.44305005
  193 1     3      0.00000     17.70472     16.34336      1.21379   #   H29   0.37741440   0.52270232   0.05726224
  194 1     3      0.00000     17.08801     16.36257      6.12227   #   H30   0.36169842   0.50387427   0.28882779
  195 1     2      0.00000     11.58071     30.78051      5.48441   #    C1   0.24259966   0.97176679   0.25873555
  196 1     2      0.00000     10.17216     30.51565      5.35019   #    C2   0.21249541   0.96374959   0.25240384
  197 1     2      0.00000      9.37241     30.37518      6.49054   #    C3   0.19478389   0.95469751   0.30620154
  198 1     2      0.00000      8.00430     30.11794      6.35961   #    C4   0.16554408   0.94691326   0.30002445
  199 1     2      0.00000      7.42079     29.99840      5.09218   #    C5   0.15368921   0.94807666   0.24023149
  200 1     2      0.00000      8.22942     30.14039      3.94724   #    C6   0.17159328   0.95719625   0.18621705
  201 1     2      0.00000      9.59786     30.39771      4.07882   #    C7   0.20083987   0.96498029   0.19242487
  202 1     1      0.00000      5.31954     29.59679      3.79543   #    C8   0.10933767   0.94025184   0.17905550
  203 1     1      0.00000      3.85110     29.32406      4.10733   #    C9   0.07772352   0.93021332   0.19376997
  204 1     1      0.00000      2.51555     30.29158      2.45112   #   C10   0.04984139   0.96800390   0.11563534
  205 1     2      0.00000      1.16329     30.46778      3.08921   #   C11   0.02051006   0.97116309   0.14573816
  206 1     2      0.00000     23.44567     29.57426      2.78785   #   C12   0.49845098   0.94351710   0.13152120
  207 1     2      0.00000     22.19209     29.72178      3.38963   #   C13   0.47125654   0.94589420   0.15991097
  208 1     2      0.00000     21.96850     30.76152      4.30076   #   C14   0.46590286   0.97584340   0.20289530