Created by Ryther's code on 2025-07-31 16:51:42.349150, modified by xyan11@uic.edu. 

    864 atoms
    1024 bonds
    1952 angles
    2048 dihedrals
    448 impropers

    6 atom types
    9 bond types
    18 angle types
    4 dihedral types
    3 improper types

0.00000000 19.6128 xlo xhi
0.00000000 20.58399121 ylo yhi
0.00000000 26.16500414 zlo zhi
5.61844059 -9.8066445 5.794e-05 xy xz yz 

Masses 

    1    12.0107  #   C
    2  58.933195  #  Co
    3  58.933195  #  Co
    4    1.00794  #   H
    5    14.0067  #   N
    6    15.9994  #   O

Pair Coeffs

    1       0.10500      3.43085  #  C_R C_R
    2       0.01400      2.55866  #  Co3+2 Co3+2
    3       0.01400      2.55866  #  Co6+2 Co6+2
    4       0.04400      2.57113  #  H_ H_
    5       0.06900      3.26069  #  N_R N_R
    6       0.06000      3.11815  #  O_2_M O_2_M

Bond Coeffs

    1     225.63195      2.08757  #  Co6+2 N_R bond order=0.5
    2     237.62685      1.98407  #  Co6+2 O_2_M bond order=0.5
    3     225.98249      2.08649  #  Co3+2 N_R bond order=0.5
    4     238.01007      1.98301  #  Co3+2 O_2_M bond order=0.5
    5     357.44038      1.08142  #  C_R H_ bond order=1.0
    6     462.65505      1.37926  #  C_R C_R bond order=1.5
    7     663.66675      1.34507  #  C_R N_R bond order=1.5
    8     391.66951      1.45800  #  C_R C_R bond order=1.0
    9     714.55744      1.26901  #  C_R O_2_M bond order=1.5

Angle Coeffs

    1  cosine/periodic        121.83513            1            4  #  N_R Co6+2 O_2_M
    2  cosine/periodic        125.25806            1            4  #  N_R Co6+2 N_R
    3  cosine/periodic        119.27391            1            4  #  O_2_M Co6+2 O_2_M
    4  fourier                141.05363      0.34375      0.37500      0.28125  #  N_R Co3+2 O_2_M
    5  fourier                144.86033      0.34375      0.37500      0.28125  #  N_R Co3+2 N_R
    6  fourier                137.94783      0.34375      0.37500      0.28125  #  O_2_M Co3+2 O_2_M
    7  cosine/periodic         57.28902           -1            3  #  C_R C_R H_
    8  cosine/periodic         79.78069           -1            3  #  H_ C_R N_R
    9  cosine/periodic        153.68727           -1            3  #  C_R C_R N_R
    10 cosine/periodic        111.29751           -1            3  #  C_R C_R C_R
    11 cosine/periodic        102.18328           -1            3  #  C_R C_R C_R
    12 cosine/periodic        137.71425           -1            3  #  C_R C_R O_2_M
    13 cosine/periodic        206.77843           -1            3  #  O_2_M C_R O_2_M
    14 cosine/periodic         69.08297           -1            3  #  C_R N_R Co6+2
    15 cosine/periodic        120.00052           -1            3  #  C_R N_R C_R
    16 cosine/periodic         69.15778           -1            3  #  C_R N_R Co3+2
    17 cosine/periodic         81.09604           -1            3  #  C_R O_2_M Co3+2
    18 cosine/periodic         81.00459           -1            3  #  C_R O_2_M Co6+2

Dihedral Coeffs

    1       3.36856           -1            2  #  X C_R C_R X bond order=1.5
    2       3.36856           -1            2  #  X C_R N_R X bond order=1.5
    3       1.25000           -1            2  #  X C_R C_R X bond order=1.0
    4       6.73711           -1            2  #  X C_R O_2_M X bond order=1.5

Improper Coeffs

    1       2.00000      1.00000     -1.00000      0.00000            1  #  C_R X X X O_2 present=False
    2      16.66667      1.00000     -1.00000      0.00000            1  #  C_R X X X O_2 present=True
    3       2.00000      1.00000     -1.00000      0.00000            1  #  N_R X X X O_2 present=False

Atoms # a, b, c, alpha, beta, gamma: 19.6128000000, 21.3370000000, 27.9424000000, 95.3024000000, 110.5460000000, 74.7329000000 $$$atoms$$$

    1 1     3      0.00000      7.35620      9.05820      3.25519   #   Co1   0.31121500   0.44006000   0.12441000
    2 1     2      0.00000      5.99073      3.95163      9.78466   #   Co2   0.43744000   0.19197500   0.37396000
    3 1     3      0.00000      1.04833      3.91222      9.82731   #   Co3   0.18680500   0.19006000   0.37559000
    4 1     3      0.00000      2.49220      9.09762      3.29784   #   Co4   0.06348000   0.44197500   0.12604000
    5 1     4      0.00000      9.70741      7.89705      1.64578   #    H1   0.41650000   0.38365000   0.06290000
    6 1     4      0.00000      5.24025      6.58485     12.86533   #    H2   0.42140000   0.31990000   0.49170000
    7 1     4      0.00000      1.23807      6.32549     12.23999   #    H3   0.20900000   0.30730000   0.46780000
    8 1     4      0.00000      5.83734      7.63666      1.05707   #    H4   0.21155000   0.37100000   0.04040000
    9 1     4      0.00000      7.49369      5.05030      7.35498   #    H5   0.45235000   0.24535000   0.28110000
   10 1     4      0.00000      7.15166      6.29768      5.43185   #    H6   0.38080000   0.30595000   0.20760000
   11 1     4      0.00000      3.22087      6.55499      6.40258   #    H7   0.19535000   0.31845000   0.24470000
   12 1     4      0.00000      3.67620      5.25923      8.28907   #    H8   0.27265000   0.25550000   0.31680000
   13 1     4      0.00000      3.92067      1.71774      4.03464   #    H9   0.25310000   0.08345000   0.15420000
   14 1     4      0.00000      3.57026      3.04953      5.90282   #   H10   0.25240000   0.14815000   0.22560000
   15 1     4      0.00000      6.96455     10.11396      8.23674   #   H11   0.37175000   0.49135000   0.31480000
   16 1     4      0.00000      7.18233      8.83158      6.33978   #   H12   0.36445000   0.42905000   0.24230000
   17 1     4      0.00000      5.90578      4.18372     12.90196   #   H13   0.48945000   0.20325000   0.49310000
   18 1     4      0.00000      1.25365      2.90441      1.73474   #   H14   0.05665000   0.14110000   0.06630000
   19 1     4      0.00000      0.27933     10.08824     12.46239   #   H15   0.11200000   0.49010000   0.47630000
   20 1     4      0.00000     -3.01295      1.10538     10.61253   #   H16   0.03380000   0.05370000   0.40560000
   21 1     4      0.00000      3.39951      2.75108     11.43672   #   H17   0.35360000   0.13365000   0.43710000
   22 1     4      0.00000      8.73895      1.43882      0.21717   #   H18   0.42970000   0.06990000   0.00830000
   23 1     4      0.00000      4.73677      1.17946      0.84251   #   H19   0.24120000   0.05730000   0.03220000
   24 1     4      0.00000     -0.47057      2.49069     12.02544   #   H20   0.17115000   0.12100000   0.45960000
   25 1     4      0.00000      3.99511     10.19629      5.72752   #   H21   0.17125000   0.49535000   0.21890000
   26 1     4      0.00000      0.84383      1.15169      7.65065   #   H22   0.17320000   0.05595000   0.29240000
   27 1     4      0.00000      6.71945      1.40899      6.67993   #   H23   0.45065000   0.06845000   0.25530000
   28 1     4      0.00000      7.17482      0.11322      4.79343   #   H24   0.45585000   0.00550000   0.18320000
   29 1     4      0.00000      0.42204      6.86375      9.04786   #   H25   0.09890000   0.33345000   0.34580000
   30 1     4      0.00000      0.07166      8.19553      7.17968   #   H26   0.02680000   0.39815000   0.27440000
   31 1     4      0.00000      0.65677      4.96796      4.84576   #   H27   0.05695000   0.24135000   0.18520000
   32 1     4      0.00000      0.87451      3.68558      6.74272   #   H28   0.12215000   0.17905000   0.25770000
   33 1     4      0.00000     12.21371      9.32969      0.18054   #   H29   0.49635000   0.45325000   0.00690000
   34 1     4      0.00000      7.56137      8.05042     11.34776   #   H30   0.49035000   0.39110000   0.43370000
   35 1     4      0.00000      3.77803      4.94222      0.62011   #   H31   0.13570000   0.24010000   0.02370000
   36 1     4      0.00000      3.29493      6.25136      2.46998   #   H32   0.12820000   0.30370000   0.09440000
   37 1     1      0.00000      8.97618      7.56771      1.13765   #    C1   0.37409000   0.36765000   0.04348000
   38 1     1      0.00000      9.24769      6.79478      0.01858   #    C2   0.37730500   0.33010000   0.00071000
   39 1     1      0.00000      3.28047      6.33166     12.32764   #    C3   0.31472500   0.30760000   0.47115000
   40 1     1      0.00000      1.98862      6.63939     12.73215   #    C4   0.25230500   0.32255000   0.48661000
   41 1     1      0.00000      6.72158      7.41641      0.78992   #    C5   0.25459500   0.36030000   0.03019000
   42 1     1      0.00000      3.53737      5.49080     11.09135   #    C6   0.31590000   0.26675000   0.42390000
   43 1     1      0.00000      6.61876      5.36215      7.15901   #    C7   0.39965500   0.26050000   0.27361000
   44 1     1      0.00000      6.42472      6.11346      6.01429   #    C8   0.35743000   0.29700000   0.22986000
   45 1     1      0.00000      5.16649      6.59101      5.72883   #    C9   0.28117500   0.32020000   0.21895000
   46 1     1      0.00000      4.10645      6.26064      6.58416   #   C10   0.24807000   0.30415000   0.25164000
   47 1     1      0.00000      4.39027      5.48977      7.70533   #   C11   0.29469500   0.26670000   0.29449000
   48 1     1      0.00000      4.90516      7.47303      4.52655   #   C12   0.23260000   0.36305000   0.17300000
   49 1     1      0.00000      3.95106      1.32253      4.89678   #   C13   0.27662500   0.06425000   0.18715000
   50 1     1      0.00000      3.74765      2.12222      6.00775   #   C14   0.27635500   0.10310000   0.22961000
   51 1     1      0.00000      3.80300      1.56337      7.27623   #   C15   0.31119500   0.07595000   0.27809000
   52 1     1      0.00000      4.07451      0.22644      7.38089   #   C16   0.34564500   0.01100000   0.28209000
   53 1     1      0.00000      7.04025      9.76609      6.24585   #   C17   0.34240500   0.47445000   0.23871000
   54 1     1      0.00000      3.54134      2.40114      8.51148   #   C18   0.30980000   0.11665000   0.32530000
   55 1     1      0.00000     -3.65037      3.27185     12.80986   #   C19   0.01314000   0.15895000   0.48958000
   56 1     1      0.00000      1.42513      2.51948      0.88412   #   C20   0.05449500   0.12240000   0.03379000
   57 1     1      0.00000      1.85230      1.19593      0.78495   #   C21   0.09280000   0.05810000   0.03000000
   58 1     1      0.00000     -2.84544      0.68445     12.57935   #   C22   0.08578500   0.03325000   0.48077000
   59 1     1      0.00000     -3.10515      1.48619     11.47806   #   C23   0.04034000   0.07220000   0.43868000
   60 1     1      0.00000      2.09711      0.33244      1.99116   #   C24   0.14035000   0.01615000   0.07610000
   61 1     1      0.00000      2.66827      2.42173     11.94485   #   C25   0.33061000   0.11765000   0.45652000
   62 1     1      0.00000      2.93976      1.64881     13.06392   #   C26   0.37659500   0.08010000   0.49929000
   63 1     1      0.00000      6.77917      1.18564      0.75486   #   C27   0.34357500   0.05760000   0.02885000
   64 1     1      0.00000      5.48733      1.49337      0.35035   #   C28   0.26569500   0.07255000   0.01339000
   65 1     1      0.00000      0.41366      2.27044     12.29258   #   C29   0.22440500   0.11030000   0.46981000
   66 1     1      0.00000      7.03604      0.34479      1.99116   #   C30   0.39200000   0.01675000   0.07610000
   67 1     1      0.00000      0.31096      0.21615      5.92350   #   C31   0.12604500   0.01050000   0.22639000
   68 1     1      0.00000      0.11690      0.96746      7.06821   #   C32   0.12757000   0.04700000   0.27014000
   69 1     1      0.00000     -1.14134      1.44501      7.35367   #   C33   0.06222500   0.07020000   0.28105000
   70 1     1      0.00000      7.60504      1.11464      6.49834   #   C34   0.49643000   0.05415000   0.24836000
   71 1     1      0.00000     -1.91751      0.34376      5.37717   #   C35   0.00020500   0.01670000   0.20551000
   72 1     1      0.00000     -1.40269      2.32704      8.55596   #   C36   0.05960000   0.11305000   0.32700000
   73 1     1      0.00000      0.45244      6.46854      8.18572   #   C37   0.08947500   0.31425000   0.31285000
   74 1     1      0.00000      0.24905      7.26822      7.07476   #   C38   0.04674500   0.35310000   0.27039000
   75 1     1      0.00000      0.30442      6.70936      5.80628   #   C39   0.03310500   0.32595000   0.22191000
   76 1     1      0.00000      0.57594      5.37243      5.70162   #   C40   0.06355500   0.26100000   0.21791000
   77 1     1      0.00000      0.73243      4.62009      6.83665   #   C41   0.10369500   0.22445000   0.26129000
   78 1     1      0.00000      9.84918      7.54713      4.57103   #   C42   0.48450000   0.36665000   0.17470000
   79 1     1      0.00000      2.65755      8.41782      0.27264   #   C43   0.02356000   0.40895000   0.01042000
   80 1     1      0.00000     -2.07357      7.66551     12.19839   #   C44   0.02070500   0.37240000   0.46621000
   81 1     1      0.00000     -1.64640      6.34195     12.29755   #   C45   0.06280000   0.30810000   0.47000000
   82 1     1      0.00000      3.46248      5.83042      0.50315   #   C46   0.10501500   0.28325000   0.01923000
   83 1     1      0.00000      3.20276      6.63217      1.60444   #   C47   0.10166000   0.32220000   0.06132000
   84 1     1      0.00000     -1.40157      5.47845     11.09135   #   C48   0.06425000   0.26615000   0.42390000
   85 1     5      0.00000      7.74667      7.87029      1.53170   #    N1   0.31472000   0.38235000   0.05854000
   86 1     5      0.00000      5.62136      5.05648      8.00309   #    N2   0.36918500   0.24565000   0.30587000
   87 1     5      0.00000      7.00239     10.28480      5.00039   #    N3   0.30945500   0.49965000   0.19111000
   88 1     5      0.00000     -3.48442      2.78401     11.56990   #    N4   0.00469500   0.13525000   0.44219000
   89 1     5      0.00000      1.43877      2.72432     11.55080   #    N5   0.25618000   0.13235000   0.44146000
   90 1     5      0.00000      2.12280     10.20247      5.07941   #    N6   0.06331500   0.49565000   0.19413000
   91 1     5      0.00000      0.69455      5.13881      8.08211   #    N7   0.11834500   0.24965000   0.30889000
   92 1     5      0.00000      2.82348      7.92999      1.51260   #    N8   0.06250500   0.38525000   0.05781000
   93 1     6      0.00000      4.73100      5.17896     10.88307   #    O1   0.37712000   0.25160000   0.41594000
   94 1     6      0.00000      2.53245      5.23659     10.37704   #    O2   0.25455000   0.25440000   0.39660000
   95 1     6      0.00000      5.85026      7.71283      3.73976   #    O3   0.26241500   0.37470000   0.14293000
   96 1     6      0.00000      3.72618      7.89603      4.40540   #    O4   0.16428500   0.38360000   0.16837000
   97 1     6      0.00000      4.45359      2.58537      9.34378   #    O5   0.36965500   0.12560000   0.35711000
   98 1     6      0.00000      2.34959      2.80973      8.60986   #    O6   0.24523000   0.13650000   0.32906000
   99 1     6      0.00000      1.15603      0.22952      2.82294   #    O7   0.10969500   0.01115000   0.10789000
  100 1     6      0.00000      6.04549     10.14174      2.04715   #    O8   0.20622000   0.49270000   0.07824000
  101 1     6      0.00000      8.22967      0.03294      2.19943   #    O9   0.46118000   0.00160000   0.08406000
  102 1     6      0.00000      6.03112      0.09058      2.70546   #   O10   0.35795000   0.00440000   0.10340000
  103 1     6      0.00000     -0.45760      2.56684      9.34274   #   O11   0.11948500   0.12470000   0.35707000
  104 1     6      0.00000      7.22473      2.75004      8.67710   #   O12   0.49591500   0.13360000   0.33163000
  105 1     6      0.00000      0.95506      7.73136      3.73872   #   O13   0.01254500   0.37560000   0.14289000
  106 1     6      0.00000      8.65744      7.95572      4.47265   #   O14   0.41617000   0.38650000   0.17094000
  107 1     6      0.00000     -2.34263      5.37553     10.25956   #   O15   0.00180500   0.26115000   0.39211000
  108 1     6      0.00000     -0.26241      4.99576     11.03535   #   O16   0.12798000   0.24270000   0.42176000
  109 1     3      0.00000      2.45288      9.05823     16.33769   #   Co1   0.31121500   0.44006000   0.62441000
  110 1     2      0.00000      1.08741      3.95166     22.86717   #   Co2   0.43744000   0.19197500   0.87396000
  111 1     3      0.00000     -3.85499      3.91224     22.90982   #   Co3   0.18680500   0.19006000   0.87559000
  112 1     3      0.00000     -2.41112      9.09765     16.38034   #   Co4   0.06348000   0.44197500   0.62604000
  113 1     4      0.00000      4.80409      7.89708     14.72828   #    H1   0.41650000   0.38365000   0.56290000
  114 1     4      0.00000      0.33692      6.58488     25.94783   #    H2   0.42140000   0.31990000   0.99170000
  115 1     4      0.00000     -3.66525      6.32552     25.32249   #    H3   0.20900000   0.30730000   0.96780000
  116 1     4      0.00000      0.93402      7.63669     14.13957   #    H4   0.21155000   0.37100000   0.54040000
  117 1     4      0.00000      2.59036      5.05033     20.43748   #    H5   0.45235000   0.24535000   0.78110000
  118 1     4      0.00000      2.24833      6.29771     18.51436   #    H6   0.38080000   0.30595000   0.70760000
  119 1     4      0.00000     -1.68246      6.55502     19.48508   #    H7   0.19535000   0.31845000   0.74470000
  120 1     4      0.00000     -1.22713      5.25926     21.37158   #    H8   0.27265000   0.25550000   0.81680000
  121 1     4      0.00000     -0.98265      1.71777     17.11715   #    H9   0.25310000   0.08345000   0.65420000
  122 1     4      0.00000     -1.33306      3.04956     18.98533   #   H10   0.25240000   0.14815000   0.72560000
  123 1     4      0.00000      2.06123     10.11399     21.31925   #   H11   0.37175000   0.49135000   0.81480000
  124 1     4      0.00000      2.27900      8.83160     19.42228   #   H12   0.36445000   0.42905000   0.74230000
  125 1     4      0.00000      1.00245      4.18375     25.98447   #   H13   0.48945000   0.20325000   0.99310000
  126 1     4      0.00000     -3.64968      2.90443     14.81724   #   H14   0.05665000   0.14110000   0.56630000
  127 1     4      0.00000     -4.62400     10.08827     25.54489   #   H15   0.11200000   0.49010000   0.97630000
  128 1     4      0.00000     -7.91627      1.10541     23.69503   #   H16   0.03380000   0.05370000   0.90560000
  129 1     4      0.00000     -1.50382      2.75110     24.51923   #   H17   0.35360000   0.13365000   0.93710000
  130 1     4      0.00000      3.83563      1.43885     13.29967   #   H18   0.42970000   0.06990000   0.50830000
  131 1     4      0.00000     -0.16655      1.17949     13.92502   #   H19   0.24120000   0.05730000   0.53220000
  132 1     4      0.00000     -5.37389      2.49072     25.10794   #   H20   0.17115000   0.12100000   0.95960000
  133 1     4      0.00000     -0.90821     10.19632     18.81002   #   H21   0.17125000   0.49535000   0.71890000
  134 1     4      0.00000     -4.05950      1.15172     20.73315   #   H22   0.17320000   0.05595000   0.79240000
  135 1     4      0.00000      1.81613      1.40902     19.76243   #   H23   0.45065000   0.06845000   0.75530000
  136 1     4      0.00000      2.27150      0.11325     17.87593   #   H24   0.45585000   0.00550000   0.68320000
  137 1     4      0.00000     -4.48128      6.86378     22.13036   #   H25   0.09890000   0.33345000   0.84580000
  138 1     4      0.00000     -4.83166      8.19556     20.26218   #   H26   0.02680000   0.39815000   0.77440000
  139 1     4      0.00000     -4.24655      4.96799     17.92826   #   H27   0.05695000   0.24135000   0.68520000
  140 1     4      0.00000     -4.02881      3.68561     19.82522   #   H28   0.12215000   0.17905000   0.75770000
  141 1     4      0.00000      7.31038      9.32972     13.26304   #   H29   0.49635000   0.45325000   0.50690000
  142 1     4      0.00000      2.65804      8.05045     24.43026   #   H30   0.49035000   0.39110000   0.93370000
  143 1     4      0.00000     -1.12530      4.94225     13.70261   #   H31   0.13570000   0.24010000   0.52370000
  144 1     4      0.00000     -1.60839      6.25139     15.55248   #   H32   0.12820000   0.30370000   0.59440000
  145 1     1      0.00000      4.07286      7.56774     14.22016   #    C1   0.37409000   0.36765000   0.54348000
  146 1     1      0.00000      4.34437      6.79480     13.10108   #    C2   0.37730500   0.33010000   0.50071000
  147 1     1      0.00000     -1.62285      6.33169     25.41014   #    C3   0.31472500   0.30760000   0.97115000
  148 1     1      0.00000     -2.91470      6.63942     25.81465   #    C4   0.25230500   0.32255000   0.98661000
  149 1     1      0.00000      1.81826      7.41644     13.87242   #    C5   0.25459500   0.36030000   0.53019000
  150 1     1      0.00000     -1.36596      5.49083     24.17385   #    C6   0.31590000   0.26675000   0.92390000
  151 1     1      0.00000      1.71544      5.36217     20.24151   #    C7   0.39965500   0.26050000   0.77361000
  152 1     1      0.00000      1.52140      6.11349     19.09679   #    C8   0.35743000   0.29700000   0.72986000
  153 1     1      0.00000      0.26317      6.59104     18.81133   #    C9   0.28117500   0.32020000   0.71895000
  154 1     1      0.00000     -0.79687      6.26066     19.66666   #   C10   0.24807000   0.30415000   0.75164000
  155 1     1      0.00000     -0.51305      5.48980     20.78783   #   C11   0.29469500   0.26670000   0.79449000
  156 1     1      0.00000      0.00184      7.47306     17.60905   #   C12   0.23260000   0.36305000   0.67300000
  157 1     1      0.00000     -0.95226      1.32256     17.97928   #   C13   0.27662500   0.06425000   0.68715000
  158 1     1      0.00000     -1.15567      2.12225     19.09025   #   C14   0.27635500   0.10310000   0.72961000
  159 1     1      0.00000     -1.10033      1.56340     20.35873   #   C15   0.31119500   0.07595000   0.77809000
  160 1     1      0.00000     -0.82881      0.22647     20.46339   #   C16   0.34564500   0.01100000   0.78209000
  161 1     1      0.00000      2.13692      9.76612     19.32835   #   C17   0.34240500   0.47445000   0.73871000
  162 1     1      0.00000     -1.36199      2.40117     21.59398   #   C18   0.30980000   0.11665000   0.82530000
  163 1     1      0.00000     -8.55370      3.27188     25.89236   #   C19   0.01314000   0.15895000   0.98958000
  164 1     1      0.00000     -3.47819      2.51951     13.96662   #   C20   0.05449500   0.12240000   0.53379000
  165 1     1      0.00000     -3.05102      1.19596     13.86745   #   C21   0.09280000   0.05810000   0.53000000
  166 1     1      0.00000     -7.74877      0.68447     25.66185   #   C22   0.08578500   0.03325000   0.98077000
  167 1     1      0.00000     -8.00847      1.48622     24.56057   #   C23   0.04034000   0.07220000   0.93868000
  168 1     1      0.00000     -2.80621      0.33246     15.07366   #   C24   0.14035000   0.01615000   0.57610000
  169 1     1      0.00000     -2.23505      2.42176     25.02735   #   C25   0.33061000   0.11765000   0.95652000
  170 1     1      0.00000     -1.96356      1.64884     26.14643   #   C26   0.37659500   0.08010000   0.99929000
  171 1     1      0.00000      1.87585      1.18567     13.83736   #   C27   0.34357500   0.05760000   0.52885000
  172 1     1      0.00000      0.58401      1.49340     13.43285   #   C28   0.26569500   0.07255000   0.51339000
  173 1     1      0.00000     -4.48966      2.27047     25.37508   #   C29   0.22440500   0.11030000   0.96981000
  174 1     1      0.00000      2.13272      0.34482     15.07366   #   C30   0.39200000   0.01675000   0.57610000
  175 1     1      0.00000     -4.59236      0.21617     19.00600   #   C31   0.12604500   0.01050000   0.72639000
  176 1     1      0.00000     -4.78642      0.96749     20.15072   #   C32   0.12757000   0.04700000   0.77014000
  177 1     1      0.00000     -6.04466      1.44504     20.43618   #   C33   0.06222500   0.07020000   0.78105000
  178 1     1      0.00000      2.70172      1.11467     19.58084   #   C34   0.49643000   0.05415000   0.74836000
  179 1     1      0.00000     -6.82084      0.34379     18.45967   #   C35   0.00020500   0.01670000   0.70551000
  180 1     1      0.00000     -6.30601      2.32707     21.63846   #   C36   0.05960000   0.11305000   0.82700000
  181 1     1      0.00000     -4.45088      6.46857     21.26822   #   C37   0.08947500   0.31425000   0.81285000
  182 1     1      0.00000     -4.65427      7.26825     20.15726   #   C38   0.04674500   0.35310000   0.77039000
  183 1     1      0.00000     -4.59890      6.70939     18.88878   #   C39   0.03310500   0.32595000   0.72191000
  184 1     1      0.00000     -4.32738      5.37246     18.78412   #   C40   0.06355500   0.26100000   0.71791000
  185 1     1      0.00000     -4.17089      4.62012     19.91916   #   C41   0.10369500   0.22445000   0.76129000
  186 1     1      0.00000      4.94586      7.54716     17.65353   #   C42   0.48450000   0.36665000   0.67470000
  187 1     1      0.00000     -2.24577      8.41785     13.35514   #   C43   0.02356000   0.40895000   0.51042000
  188 1     1      0.00000     -6.97689      7.66553     25.28089   #   C44   0.02070500   0.37240000   0.96621000
  189 1     1      0.00000     -6.54972      6.34198     25.38005   #   C45   0.06280000   0.30810000   0.97000000
  190 1     1      0.00000     -1.44084      5.83045     13.58566   #   C46   0.10501500   0.28325000   0.51923000
  191 1     1      0.00000     -1.70057      6.63219     14.68694   #   C47   0.10166000   0.32220000   0.56132000
  192 1     1      0.00000     -6.30489      5.47848     24.17385   #   C48   0.06425000   0.26615000   0.92390000
  193 1     5      0.00000      2.84335      7.87032     14.61420   #    N1   0.31472000   0.38235000   0.55854000
  194 1     5      0.00000      0.71804      5.05650     21.08559   #    N2   0.36918500   0.24565000   0.80587000
  195 1     5      0.00000      2.09906     10.28483     18.08290   #    N3   0.30945500   0.49965000   0.69111000
  196 1     5      0.00000     -8.38775      2.78404     24.65241   #    N4   0.00469500   0.13525000   0.94219000
  197 1     5      0.00000     -3.46456      2.72435     24.63330   #    N5   0.25618000   0.13235000   0.94146000
  198 1     5      0.00000     -2.78052     10.20250     18.16191   #    N6   0.06331500   0.49565000   0.69413000
  199 1     5      0.00000     -4.20878      5.13884     21.16461   #    N7   0.11834500   0.24965000   0.80889000
  200 1     5      0.00000     -2.07984      7.93001     14.59510   #    N8   0.06250500   0.38525000   0.55781000
  201 1     6      0.00000     -0.17232      5.17899     23.96557   #    O1   0.37712000   0.25160000   0.91594000
  202 1     6      0.00000     -2.37087      5.23662     23.45954   #    O2   0.25455000   0.25440000   0.89660000
  203 1     6      0.00000      0.94694      7.71286     16.82227   #    O3   0.26241500   0.37470000   0.64293000
  204 1     6      0.00000     -1.17714      7.89606     17.48790   #    O4   0.16428500   0.38360000   0.66837000
  205 1     6      0.00000     -0.44973      2.58540     22.42629   #    O5   0.36965500   0.12560000   0.85711000
  206 1     6      0.00000     -2.55373      2.80976     21.69236   #    O6   0.24523000   0.13650000   0.82906000
  207 1     6      0.00000     -3.74729      0.22955     15.90544   #    O7   0.10969500   0.01115000   0.60789000
  208 1     6      0.00000      1.14216     10.14177     15.12965   #    O8   0.20622000   0.49270000   0.57824000
  209 1     6      0.00000      3.32635      0.03297     15.28193   #    O9   0.46118000   0.00160000   0.58406000
  210 1     6      0.00000      1.12779      0.09060     15.78796   #   O10   0.35795000   0.00440000   0.60340000
  211 1     6      0.00000     -5.36093      2.56687     22.42524   #   O11   0.11948500   0.12470000   0.85707000
  212 1     6      0.00000      2.32141      2.75007     21.75960   #   O12   0.49591500   0.13360000   0.83163000
  213 1     6      0.00000     -3.94826      7.73138     16.82122   #   O13   0.01254500   0.37560000   0.64289000
  214 1     6      0.00000      3.75412      7.95575     17.55515   #   O14   0.41617000   0.38650000   0.67094000
  215 1     6      0.00000     -7.24595      5.37556     23.34206   #   O15   0.00180500   0.26115000   0.89211000
  216 1     6      0.00000     -5.16573      4.99579     24.11785   #   O16   0.12798000   0.24270000   0.92176000
  217 1     3      0.00000     10.16542     19.35019      3.25519   #   Co1   0.31121500   0.94006000   0.12441000
  218 1     2      0.00000      8.79995     14.24363      9.78466   #   Co2   0.43744000   0.69197500   0.37396000
  219 1     3      0.00000      3.85755     14.20421      9.82731   #   Co3   0.18680500   0.69006000   0.37559000
  220 1     3      0.00000      5.30142     19.38961      3.29784   #   Co4   0.06348000   0.94197500   0.12604000
  221 1     4      0.00000     12.51663     18.18905      1.64578   #    H1   0.41650000   0.88365000   0.06290000
  222 1     4      0.00000      8.04947     16.87684     12.86533   #    H2   0.42140000   0.81990000   0.49170000
  223 1     4      0.00000      4.04729     16.61748     12.23999   #    H3   0.20900000   0.80730000   0.46780000
  224 1     4      0.00000      8.64656     17.92866      1.05707   #    H4   0.21155000   0.87100000   0.04040000
  225 1     4      0.00000     10.30291     15.34229      7.35498   #    H5   0.45235000   0.74535000   0.28110000
  226 1     4      0.00000      9.96088     16.58968      5.43185   #    H6   0.38080000   0.80595000   0.20760000
  227 1     4      0.00000      6.03009     16.84698      6.40258   #    H7   0.19535000   0.81845000   0.24470000
  228 1     4      0.00000      6.48542     15.55122      8.28907   #    H8   0.27265000   0.75550000   0.31680000