Created by Ryther's code on 2025-08-05 18:36:53.916629, modified by xyan11@uic.edu. 

    520 atoms
    592 bonds
    1024 angles
    1184 dihedrals
    216 impropers

    11 atom types
    15 bond types
    23 angle types
    8 dihedral types
    3 improper types

0.00000000 32.10676889 xlo xhi
0.00000000 20.60239318 ylo yhi
0.00000000 20.54026518 zlo zhi
0.28978744 0.06597046 1.58808009 xy xz yz 

Masses 

    1    12.0107  #   C
    2    12.0107  #   C
    3    12.0107  #   C
    4    1.00794  #   H
    5    14.0067  #   N
    6    14.0067  #   N
    7    14.0067  #   N
    8    15.9994  #   O
    9    15.9994  #   O
   10     32.065  #   S
   11      65.38  #  Zn

Pair Coeffs

    1       0.10500      3.43085  #  C_1 C_1
    2       0.10500      3.43085  #  C_3 C_3
    3       0.10500      3.43085  #  C_R C_R
    4       0.04400      2.57113  #  H_ H_
    5       0.06900      3.26069  #  N_1 N_1
    6       0.06900      3.26069  #  N_2 N_2
    7       0.06900      3.26069  #  N_R N_R
    8       0.06000      3.11815  #  O_2_M O_2_M
    9       0.06000      3.11815  #  O_3 O_3
    10      0.27400      3.59478  #  S_3 S_3
    11      0.06000      2.58361  #  Zn6f3 Zn6f3

Bond Coeffs

    1      55.07699      2.48452  #  N_2 Zn6f3 bond order=0.5
    2      54.94924      2.40433  #  O_2_M Zn6f3 bond order=0.5
    3     357.44038      1.08142  #  C_R H_ bond order=1.0
    4     529.41782      1.04342  #  H_ N_R bond order=1.0
    5     331.06939      1.10940  #  C_3 H_ bond order=1.0
    6     931.53598      1.20133  #  C_R N_2 bond order=3.0
    7     462.65505      1.37926  #  C_R C_R bond order=1.5
    8     663.66675      1.34507  #  C_R N_R bond order=1.5
    9     391.66951      1.45800  #  C_R C_R bond order=1.0
    10    301.29678      1.78592  #  C_R S_3 bond order=1.0
    11    313.16521      1.76307  #  C_1 S_3 bond order=1.0
    12   1042.36213      1.15715  #  C_1 N_1 bond order=3.0
    13    369.94394      1.48600  #  C_3 C_R bond order=1.0
    14    539.20166      1.39385  #  C_3 O_3 bond order=1.0
    15    714.55744      1.26901  #  C_R O_2_M bond order=1.5

Angle Coeffs

    1  cosine/periodic         70.47472            1            4  #  N_2 Zn6f3 O_2_M
    2  cosine/periodic         67.02484            1            4  #  O_2_M Zn6f3 O_2_M
    3  cosine/periodic        179.74893           -1            3  #  C_R C_R N_2
    4  cosine/periodic        111.29751           -1            3  #  C_R C_R C_R
    5  cosine/periodic        153.68727           -1            3  #  C_R C_R N_R
    6  cosine/periodic         57.28902           -1            3  #  C_R C_R H_
    7  cosine/periodic        102.18328           -1            3  #  C_R C_R C_R
    8  cosine/periodic        140.82706           -1            3  #  C_R C_R N_R
    9  cosine/periodic        101.95051           -1            3  #  C_R C_R S_3
    10 cosine/periodic         91.69186            1            1  #  N_1 C_1 S_3
    11 cosine/periodic         99.13715           -1            3  #  C_3 C_R C_R
    12 fourier                121.77380      0.34375      0.37500      0.28125  #  C_R C_3 H_
    13 fourier                165.75867      0.34375      0.37500      0.28125  #  H_ C_3 O_3
    14 fourier                 75.49653      0.34375      0.37500      0.28125  #  H_ C_3 H_
    15 fourier                298.92298      0.34375      0.37500      0.28125  #  C_R C_3 O_3
    16 cosine/periodic        137.71425           -1            3  #  C_R C_R O_2_M
    17 cosine/periodic        206.77843           -1            3  #  O_2_M C_R O_2_M
    18 fourier                215.62659      0.25101      0.03669      0.25034  #  C_1 S_3 C_R
    19 fourier                 48.02888      0.36401      0.41847      0.28800  #  C_R N_2 Zn6f3
    20 cosine/periodic         62.53561           -1            3  #  C_R N_R H_
    21 cosine/periodic        120.00052           -1            3  #  C_R N_R C_R
    22 fourier                311.60110      0.30023      0.26733      0.26675  #  C_3 O_3 C_3
    23 cosine/periodic         21.77718           -1            3  #  C_R O_2_M Zn6f3

Dihedral Coeffs

    1      27.96100           -1            2  #  X C_R N_2 X bond order=3.0
    2       6.73711           -1            2  #  X C_R C_R X bond order=1.5
    3       3.36856           -1            2  #  X C_R N_R X bond order=1.5
    4       1.25000           -1            2  #  X C_R C_R X bond order=1.0
    5       1.22984           -1            2  #  X C_R S_3 X bond order=1.0
    6       0.16667           -1            6  #  X C_3 C_R X bond order=1.0
    7       0.03255            1            3  #  X C_3 O_3 X bond order=1.0
    8       6.73711           -1            2  #  X C_R O_2_M X bond order=1.5

Improper Coeffs

    1       2.00000      1.00000     -1.00000      0.00000            1  #  C_R X X X O_2 present=False
    2      16.66667      1.00000     -1.00000      0.00000            1  #  C_R X X X O_2 present=True
    3       2.00000      1.00000     -1.00000      0.00000            1  #  N_R X X X O_2 present=False

Atoms # a, b, c, alpha, beta, gamma: 32.1067688885, 20.6044311172, 20.6016709106, 85.5768183144, 89.8165277291, 89.1941468934 $$$atoms$$$

    1 1     11     0.00000     14.67020      4.57462      5.79690   #   Zn1   0.45453155   0.20028873   0.28222144
    2 1     11     0.00000      1.54690      4.53246      5.78980   #   Zn2   0.04581110   0.19826903   0.28187569
    3 1     4      0.00000     11.98482      3.80864      2.20583   #    H1   0.37146557   0.17658621   0.10739057
    4 1     4      0.00000      9.60435      3.23602      1.16032   #    H2   0.29764344   0.15271570   0.05648993
    5 1     4      0.00000      6.91557      4.38392      4.92179   #    H3   0.21314658   0.19431660   0.23961680
    6 1     4      0.00000      3.60576      2.59172      2.84993   #    H4   0.11098118   0.11510217   0.13874830
    7 1     4      0.00000      5.15074      1.68323      1.15252   #    H5   0.15961168   0.07737577   0.05611041
    8 1     4      0.00000      7.56605      2.08541      1.31894   #    H6   0.23465184   0.09627190   0.06421232
    9 1     4      0.00000      9.11360      3.94259      5.34126   #    H7   0.28177233   0.17132116   0.26003867
   10 1     4      0.00000      1.91064      1.51908      6.37353   #    H8   0.05842173   0.04981485   0.31029444
   11 1     4      0.00000      2.00120      7.54063      6.37542   #    H9   0.05860423   0.34208236   0.31038644
   12 1     4      0.00000     14.50969      9.72550      5.26686   #   H10   0.44731075   0.45229151   0.25641660
   13 1     4      0.00000      1.79798      5.23193      2.72355   #   H12   0.05352774   0.24372685   0.13259563
   14 1     4      0.00000      1.82265      5.69820      8.71643   #   H13   0.05369549   0.24386922   0.42435820
   15 1     4      0.00000     14.55184      3.32050      0.72543   #   H14   0.45173013   0.15844802   0.03531735
   16 1     4      0.00000      3.34112      6.55808      1.37223   #   H16   0.10109910   0.31316670   0.06680706
   17 1     4      0.00000      3.37143      7.21323      9.84392   #   H17   0.10119562   0.31317447   0.47924967
   18 1     4      0.00000      6.31242      4.69050      0.60753   #   H18   0.19451217   0.22538769   0.02957770
   19 1     4      0.00000      5.67831      6.16183      1.41203   #   H19   0.17406421   0.29378428   0.06874471
   20 1     4      0.00000      5.70871      6.81543      9.85910   #   H20   0.17416592   0.29380911   0.47998882
   21 1     3      0.00000     11.84998      4.32950      5.03305   #    C1   0.36685057   0.19125766   0.24503340
   22 1     3      0.00000     10.83029      3.98920      4.07827   #    C2   0.33530359   0.17832320   0.19855017
   23 1     3      0.00000     11.04248      3.76079      2.73584   #    C3   0.34210124   0.17227438   0.13319380
   24 1     3      0.00000      9.80679      3.45837      2.19925   #    C4   0.30378258   0.15960953   0.10706994
   25 1     3      0.00000      8.89352      3.51904      3.24325   #    C5   0.27524218   0.15863649   0.15789720
   26 1     3      0.00000      7.43435      3.26556      3.13801   #    C6   0.22991267   0.14672802   0.15277335
   27 1     3      0.00000      6.54669      3.78017      4.10233   #    C7   0.20197621   0.16808709   0.19972137
   28 1     3      0.00000      5.16965      3.53969      4.00152   #    C8   0.15919881   0.15679301   0.19481370
   29 1     3      0.00000      4.26981      4.07415      4.99021   #    C9   0.13087268   0.17902448   0.24294756
   30 1     3      0.00000      4.66860      2.78346      2.93654   #   C10   0.14399485   0.12408390   0.14296486
   31 1     3      0.00000      5.54010      2.27026      1.97439   #   C11   0.17142706   0.10278464   0.09612267
   32 1     3      0.00000      6.91379      2.50872      2.07112   #   C12   0.21410143   0.11399584   0.10083207
   33 1     3      0.00000      0.02535      0.62602      5.79293   #   C13   0.00013194   0.00864629   0.28202818
   34 1     3      0.00000      1.36629      0.59735      6.20933   #   C14   0.04188213   0.00569205   0.30230050
   35 1     3      0.00000      2.16155      9.67894      6.42077   #   C15   0.06265886   0.44570158   0.31259420
   36 1     3      0.00000      1.48059      8.47600      6.21045   #   C16   0.04199041   0.38810206   0.30235507
   37 1     3      0.00000      0.13849      8.48106      5.79378   #   C17   0.00021468   0.38991168   0.28206921
   38 1     3      0.00000     15.54400      9.71212      5.58782   #   C18   0.47951019   0.45043790   0.27204232
   39 1     1      0.00000      3.43798      9.66419      8.65678   #   C19   0.10227316   0.43659426   0.42145413
   40 1     3      0.00000      0.06812      4.25009      1.87719   #   C20   0.00013547   0.19924671   0.09139057
   41 1     3      0.00000      1.30504      4.91200      1.81334   #   C21   0.03837487   0.23161407   0.08828206
   42 1     3      0.00000      1.91661      5.16658      0.57730   #   C22   0.05739310   0.24860907   0.02810577
   43 1     3      0.00000      1.33348      5.52094      9.66691   #   C23   0.03847437   0.23169813   0.47063230
   44 1     3      0.00000      0.09572      4.85699      9.70952   #   C24   0.00021118   0.19931127   0.47270685
   45 1     3      0.00000     15.50577      3.83170      0.68401   #   C25   0.48122001   0.18341609   0.03330110
   46 1     2      0.00000      3.25824      5.84061      0.52317   #   C26   0.09888794   0.28152852   0.02547062
   47 1     2      0.00000      5.53133      5.47594      0.54814   #   C27   0.16984410   0.26373423   0.02668588
   48 1     3      0.00000      0.08971      4.68899      8.22904   #   C28   0.00019537   0.19671292   0.40062962
   49 1     3      0.00000      0.07404      4.41810      3.35767   #   C29   0.00014828   0.20184564   0.16346756
   50 1     3      0.00000      0.11685      6.99218      5.74048   #   C30   0.00019640   0.31784402   0.27947425
   51 1     3      0.00000      0.04689      2.11490      5.84623   #   C31   0.00014722   0.08071375   0.28462297
   52 1     10     0.00000      3.87495      9.65755      6.94682   #    S1   0.11599897   0.44268889   0.33820510
   53 1     6      0.00000     12.67050      4.60339      5.80164   #    N1   0.39223587   0.20166760   0.28245217
   54 1     6      0.00000      3.54660      4.50378      5.78495   #    N2   0.10810680   0.19689545   0.28163965
   55 1     7      0.00000      9.52999      3.84439      4.38877   #    N3   0.29484720   0.17012942   0.21366666
   56 1     5      0.00000      3.15111      9.66855      9.77780   #    N4   0.09326200   0.43259919   0.47603104
   57 1     9      0.00000      4.26628      4.85566      0.59772   #    O1   0.13071097   0.23344103   0.02909974
   58 1     8      0.00000      1.18797      4.45843      3.85183   #    O2   0.03479269   0.20194856   0.18752605
   59 1     8      0.00000      1.19964      4.61665      7.72948   #    O3   0.03483003   0.19507660   0.37630853
   60 1     8      0.00000      1.22154      6.47651      5.71994   #    O4   0.03483038   0.29289151   0.27847471
   61 1     8      0.00000      1.16607      2.59858      5.86137   #    O5   0.03479229   0.10413366   0.28535982
   62 1     8      0.00000     15.05103      6.50850      5.72534   #    O6   0.46555033   0.29442410   0.27873731
   63 1     8      0.00000     15.02912      4.64866      7.73487   #    O7   0.46554997   0.19660997   0.37657109
   64 1     8      0.00000     15.01746      4.49044      3.85721   #    O8   0.46551263   0.20348191   0.18778783
   65 1     8      0.00000     14.99556      2.63058      5.86674   #    O9   0.46551224   0.10566701   0.28562164
   66 1     11     0.00000     14.70318      5.36866     16.06704   #   Zn1   0.45453155   0.20028873   0.78222144
   67 1     11     0.00000      1.57988      5.32650     16.05993   #   Zn2   0.04581110   0.19826903   0.78187569
   68 1     4      0.00000     12.01780      4.60268     12.47596   #    H1   0.37146557   0.17658621   0.60739057
   69 1     4      0.00000      9.63734      4.03006     11.43045   #    H2   0.29764344   0.15271570   0.55648993
   70 1     4      0.00000      6.94855      5.17796     15.19193   #    H3   0.21314658   0.19431660   0.73961680
   71 1     4      0.00000      3.63874      3.38576     13.12006   #    H4   0.11098118   0.11510217   0.63874830
   72 1     4      0.00000      5.18372      2.47727     11.42266   #    H5   0.15961168   0.07737577   0.55611041
   73 1     4      0.00000      7.59903      2.87945     11.58907   #    H6   0.23465184   0.09627190   0.56421232
   74 1     4      0.00000      9.14659      4.73663     15.61140   #    H7   0.28177233   0.17132116   0.76003867
   75 1     4      0.00000      1.94362      2.31312     16.64366   #    H8   0.05842173   0.04981485   0.81029444
   76 1     4      0.00000      2.03419      8.33467     16.64555   #    H9   0.05860423   0.34208236   0.81038644
   77 1     4      0.00000     14.54267     10.51954     15.53700   #   H10   0.44731075   0.45229151   0.75641660
   78 1     4      0.00000      1.83096      6.02597     12.99368   #   H12   0.05352774   0.24372685   0.63259563
   79 1     4      0.00000      1.85564      6.49224     18.98656   #   H13   0.05369549   0.24386922   0.92435820
   80 1     4      0.00000     14.58483      4.11454     10.99556   #   H14   0.45173013   0.15844802   0.53531735
   81 1     4      0.00000      3.37411      7.35212     11.64237   #   H16   0.10109910   0.31316670   0.56680706
   82 1     4      0.00000      3.40442      8.00727     20.11405   #   H17   0.10119562   0.31317447   0.97924967
   83 1     4      0.00000      6.34541      5.48454     10.87767   #   H18   0.19451217   0.22538769   0.52957770
   84 1     4      0.00000      5.71129      6.95587     11.68217   #   H19   0.17406421   0.29378428   0.56874471
   85 1     4      0.00000      5.74170      7.60947     20.12923   #   H20   0.17416592   0.29380911   0.97998882
   86 1     3      0.00000     11.88296      5.12354     15.30318   #    C1   0.36685057   0.19125766   0.74503340
   87 1     3      0.00000     10.86327      4.78324     14.34841   #    C2   0.33530359   0.17832320   0.69855017
   88 1     3      0.00000     11.07546      4.55483     13.00597   #    C3   0.34210124   0.17227438   0.63319380
   89 1     3      0.00000      9.83978      4.25241     12.46938   #    C4   0.30378258   0.15960953   0.60706994
   90 1     3      0.00000      8.92651      4.31308     13.51338   #    C5   0.27524218   0.15863649   0.65789720
   91 1     3      0.00000      7.46734      4.05960     13.40814   #    C6   0.22991267   0.14672802   0.65277335
   92 1     3      0.00000      6.57967      4.57421     14.37246   #    C7   0.20197621   0.16808709   0.69972137
   93 1     3      0.00000      5.20263      4.33373     14.27166   #    C8   0.15919881   0.15679301   0.69481370
   94 1     3      0.00000      4.30279      4.86819     15.26034   #    C9   0.13087268   0.17902448   0.74294756
   95 1     3      0.00000      4.70158      3.57750     13.20667   #   C10   0.14399485   0.12408390   0.64296486
   96 1     3      0.00000      5.57308      3.06430     12.24452   #   C11   0.17142706   0.10278464   0.59612267
   97 1     3      0.00000      6.94678      3.30276     12.34125   #   C12   0.21410143   0.11399584   0.60083207
   98 1     3      0.00000      0.05833      1.42006     16.06307   #   C13   0.00013194   0.00864629   0.78202818
   99 1     3      0.00000      1.39928      1.39139     16.47947   #   C14   0.04188213   0.00569205   0.80230050
  100 1     3      0.00000      2.19454     10.47298     16.69090   #   C15   0.06265886   0.44570158   0.81259420
  101 1     3      0.00000      1.51358      9.27004     16.48059   #   C16   0.04199041   0.38810206   0.80235507
  102 1     3      0.00000      0.17148      9.27510     16.06391   #   C17   0.00021468   0.38991168   0.78206921
  103 1     3      0.00000     15.57699     10.50616     15.85795   #   C18   0.47951019   0.45043790   0.77204232
  104 1     1      0.00000      3.47097     10.45823     18.92691   #   C19   0.10227316   0.43659426   0.92145413
  105 1     3      0.00000      0.10110      5.04413     12.14732   #   C20   0.00013547   0.19924671   0.59139057
  106 1     3      0.00000      1.33802      5.70604     12.08347   #   C21   0.03837487   0.23161407   0.58828206
  107 1     3      0.00000      1.94959      5.96062     10.84743   #   C22   0.05739310   0.24860907   0.52810577
  108 1     3      0.00000      1.36646      6.31498     19.93704   #   C23   0.03847437   0.23169813   0.97063230
  109 1     3      0.00000      0.12871      5.65103     19.97966   #   C24   0.00021118   0.19931127   0.97270685
  110 1     3      0.00000     15.53875      4.62574     10.95415   #   C25   0.48122001   0.18341609   0.53330110
  111 1     2      0.00000      3.29122      6.63465     10.79331   #   C26   0.09888794   0.28152852   0.52547062
  112 1     2      0.00000      5.56432      6.26998     10.81827   #   C27   0.16984410   0.26373423   0.52668588
  113 1     3      0.00000      0.12269      5.48303     18.49917   #   C28   0.00019537   0.19671292   0.90062962
  114 1     3      0.00000      0.10702      5.21214     13.62780   #   C29   0.00014828   0.20184564   0.66346756
  115 1     3      0.00000      0.14984      7.78622     16.01061   #   C30   0.00019640   0.31784402   0.77947425
  116 1     3      0.00000      0.07988      2.90894     16.11636   #   C31   0.00014722   0.08071375   0.78462297
  117 1     10     0.00000      3.90793     10.45159     17.21695   #    S1   0.11599897   0.44268889   0.83820510
  118 1     6      0.00000     12.70349      5.39743     16.07177   #    N1   0.39223587   0.20166760   0.78245217
  119 1     6      0.00000      3.57958      5.29782     16.05509   #    N2   0.10810680   0.19689545   0.78163965
  120 1     7      0.00000      9.56297      4.63843     14.65890   #    N3   0.29484720   0.17012942   0.71366666
  121 1     5      0.00000      3.18409     10.46259     20.04794   #    N4   0.09326200   0.43259919   0.97603104
  122 1     9      0.00000      4.29926      5.64970     10.86785   #    O1   0.13071097   0.23344103   0.52909974
  123 1     8      0.00000      1.22096      5.25247     14.12197   #    O2   0.03479269   0.20194856   0.68752605
  124 1     8      0.00000      1.23262      5.41069     17.99961   #    O3   0.03483003   0.19507660   0.87630853
  125 1     8      0.00000      1.25452      7.27055     15.99008   #    O4   0.03483038   0.29289151   0.77847471
  126 1     8      0.00000      1.19906      3.39262     16.13150   #    O5   0.03479229   0.10413366   0.78535982
  127 1     8      0.00000     15.08401      7.30254     15.99547   #    O6   0.46555033   0.29442410   0.77873731
  128 1     8      0.00000     15.06211      5.44270     18.00500   #    O7   0.46554997   0.19660997   0.87657109
  129 1     8      0.00000     15.05045      5.28448     14.12734   #    O8   0.46551263   0.20348191   0.68778783
  130 1     8      0.00000     15.02854      3.42462     16.13688   #    O9   0.46551224   0.10566701   0.78562164
  131 1     11     0.00000     14.81509     14.87581      5.79690   #   Zn1   0.45453155   0.70028873   0.28222144
  132 1     11     0.00000      1.69179     14.83365      5.78980   #   Zn2   0.04581110   0.69826903   0.28187569
  133 1     4      0.00000     12.12971     14.10984      2.20583   #    H1   0.37146557   0.67658621   0.10739057
  134 1     4      0.00000      9.74924     13.53722      1.16032   #    H2   0.29764344   0.65271570   0.05648993
  135 1     4      0.00000      7.06046     14.68511      4.92179   #    H3   0.21314658   0.69431660   0.23961680
  136 1     4      0.00000      3.75065     12.89292      2.84993   #    H4   0.11098118   0.61510217   0.13874830
  137 1     4      0.00000      5.29563     11.98443      1.15252   #    H5   0.15961168   0.57737577   0.05611041
  138 1     4      0.00000      7.71094     12.38660      1.31894   #    H6   0.23465184   0.59627190   0.06421232
  139 1     4      0.00000      9.25849     14.24378      5.34126   #    H7   0.28177233   0.67132116   0.26003867
  140 1     4      0.00000      2.05553     11.82027      6.37353   #    H8   0.05842173   0.54981485   0.31029444
  141 1     4      0.00000      2.14609     17.84183      6.37542   #    H9   0.05860423   0.84208236   0.31038644
  142 1     4      0.00000     14.65458     20.02669      5.26686   #   H10   0.44731075   0.95229151   0.25641660
  143 1     4      0.00000      1.94287     15.53313      2.72355   #   H12   0.05352774   0.74372685   0.13259563
  144 1     4      0.00000      1.96755     15.99940      8.71643   #   H13   0.05369549   0.74386922   0.42435820
  145 1     4      0.00000     14.69673     13.62169      0.72543   #   H14   0.45173013   0.65844802   0.03531735
  146 1     4      0.00000      3.48602     16.85928      1.37223   #   H16   0.10109910   0.81316670   0.06680706
  147 1     4      0.00000      3.51633     17.51443      9.84392   #   H17   0.10119562   0.81317447   0.47924967
  148 1     4      0.00000      6.45732     14.99169      0.60753   #   H18   0.19451217   0.72538769   0.02957770
  149 1     4      0.00000      5.82320     16.46303      1.41203   #   H19   0.17406421   0.79378428   0.06874471
  150 1     4      0.00000      5.85361     17.11663      9.85910   #   H20   0.17416592   0.79380911   0.47998882
  151 1     3      0.00000     11.99487     14.63069      5.03305   #    C1   0.36685057   0.69125766   0.24503340
  152 1     3      0.00000     10.97518     14.29039      4.07827   #    C2   0.33530359   0.67832320   0.19855017
  153 1     3      0.00000     11.18737     14.06198      2.73584   #    C3   0.34210124   0.67227438   0.13319380
  154 1     3      0.00000      9.95169     13.75957      2.19925   #    C4   0.30378258   0.65960953   0.10706994
  155 1     3      0.00000      9.03842     13.82024      3.24325   #    C5   0.27524218   0.65863649   0.15789720
  156 1     3      0.00000      7.57925     13.56676      3.13801   #    C6   0.22991267   0.64672802   0.15277335
  157 1     3      0.00000      6.69158     14.08137      4.10233   #    C7   0.20197621   0.66808709   0.19972137
  158 1     3      0.00000      5.31454     13.84089      4.00152   #    C8   0.15919881   0.65679301   0.19481370
  159 1     3      0.00000      4.41470     14.37535      4.99021   #    C9   0.13087268   0.67902448   0.24294756
  160 1     3      0.00000      4.81349     13.08466      2.93654   #   C10   0.14399485   0.62408390   0.14296486
  161 1     3      0.00000      5.68499     12.57146      1.97439   #   C11   0.17142706   0.60278464   0.09612267
  162 1     3      0.00000      7.05869     12.80991      2.07112   #   C12   0.21410143   0.61399584   0.10083207
  163 1     3      0.00000      0.17024     10.92721      5.79293   #   C13   0.00013194   0.50864629   0.28202818
  164 1     3      0.00000      1.51119     10.89854      6.20933   #   C14   0.04188213   0.50569205   0.30230050
  165 1     3      0.00000      2.30645     19.98014      6.42077   #   C15   0.06265886   0.94570158   0.31259420
  166 1     3      0.00000      1.62548     18.77719      6.21045   #   C16   0.04199041   0.88810206   0.30235507
  167 1     3      0.00000      0.28339     18.78226      5.79378   #   C17   0.00021468   0.88991168   0.28206921
  168 1     3      0.00000     15.68889     20.01332      5.58782   #   C18   0.47951019   0.95043790   0.27204232
  169 1     1      0.00000      3.58288     19.96539      8.65678   #   C19   0.10227316   0.93659426   0.42145413
  170 1     3      0.00000      0.21301     14.55129      1.87719   #   C20   0.00013547   0.69924671   0.09139057
  171 1     3      0.00000      1.44993     15.21320      1.81334   #   C21   0.03837487   0.73161407   0.08828206
  172 1     3      0.00000      2.06150     15.46777      0.57730   #   C22   0.05739310   0.74860907   0.02810577
  173 1     3      0.00000      1.47837     15.82213      9.66691   #   C23   0.03847437   0.73169813   0.47063230
  174 1     3      0.00000      0.24062     15.15818      9.70952   #   C24   0.00021118   0.69931127   0.47270685
  175 1     3      0.00000     15.65066     14.13289      0.68401   #   C25   0.48122001   0.68341609   0.03330110
  176 1     2      0.00000      3.40313     16.14181      0.52317   #   C26   0.09888794   0.78152852   0.02547062
  177 1     2      0.00000      5.67623     15.77713      0.54814   #   C27   0.16984410   0.76373423   0.02668588
  178 1     3      0.00000      0.23460     14.99019      8.22904   #   C28   0.00019537   0.69671292   0.40062962
  179 1     3      0.00000      0.21893     14.71930      3.35767   #   C29   0.00014828   0.70184564   0.16346756
  180 1     3      0.00000      0.26174     17.29337      5.74048   #   C30   0.00019640   0.81784402   0.27947425
  181 1     3      0.00000      0.19179     12.41610      5.84623   #   C31   0.00014722   0.58071375   0.28462297
  182 1     10     0.00000      4.01984     19.95874      6.94682   #    S1   0.11599897   0.94268889   0.33820510
  183 1     6      0.00000     12.81539     14.90459      5.80164   #    N1   0.39223587   0.70166760   0.28245217
  184 1     6      0.00000      3.69149     14.80498      5.78495   #    N2   0.10810680   0.69689545   0.28163965
  185 1     7      0.00000      9.67488     14.14559      4.38877   #    N3   0.29484720   0.67012942   0.21366666
  186 1     5      0.00000      3.29600     19.96975      9.77780   #    N4   0.09326200   0.93259919   0.47603104
  187 1     9      0.00000      4.41117     15.15685      0.59772   #    O1   0.13071097   0.73344103   0.02909974
  188 1     8      0.00000      1.33287     14.75963      3.85183   #    O2   0.03479269   0.70194856   0.18752605
  189 1     8      0.00000      1.34453     14.91785      7.72948   #    O3   0.03483003   0.69507660   0.37630853
  190 1     8      0.00000      1.36643     16.77770      5.71994   #    O4   0.03483038   0.79289151   0.27847471
  191 1     8      0.00000      1.31096     12.89977      5.86137   #    O5   0.03479229   0.60413366   0.28535982
  192 1     8      0.00000     15.19592     16.80969      5.72534   #    O6   0.46555033   0.79442410   0.27873731
  193 1     8      0.00000     15.17402     14.94986      7.73487   #    O7   0.46554997   0.69660997   0.37657109
  194 1     8      0.00000     15.16236     14.79163      3.85721   #    O8   0.46551263   0.70348191   0.18778783
  195 1     8      0.00000     15.14045     12.93178      5.86674   #    O9   0.46551224   0.60566701   0.28562164
  196 1     11     0.00000     14.84808     15.66985     16.06704   #   Zn1   0.45453155   0.70028873   0.78222144
  197 1     11     0.00000      1.72478     15.62769     16.05993   #   Zn2   0.04581110   0.69826903   0.78187569
  198 1     4      0.00000     12.16270     14.90388     12.47596   #    H1   0.37146557   0.67658621   0.60739057
  199 1     4      0.00000      9.78223     14.33126     11.43045   #    H2   0.29764344   0.65271570   0.55648993
  200 1     4      0.00000      7.09345     15.47915     15.19193   #    H3   0.21314658   0.69431660   0.73961680
  201 1     4      0.00000      3.78363     13.68696     13.12006   #    H4   0.11098118   0.61510217   0.63874830
  202 1     4      0.00000      5.32862     12.77847     11.42266   #    H5   0.15961168   0.57737577   0.55611041
  203 1     4      0.00000      7.74393     13.18064     11.58907   #    H6   0.23465184   0.59627190   0.56421232
  204 1     4      0.00000      9.29148     15.03782     15.61140   #    H7   0.28177233   0.67132116   0.76003867
  205 1     4      0.00000      2.08852     12.61431     16.64366   #    H8   0.05842173   0.54981485   0.81029444
  206 1     4      0.00000      2.17908     18.63587     16.64555   #    H9   0.05860423   0.84208236   0.81038644
  207 1     4      0.00000     14.68757     20.82073     15.53700   #   H10   0.44731075   0.95229151   0.75641660
  208 1     4      0.00000      1.97586     16.32717     12.99368   #   H12   0.05352774   0.74372685   0.63259563
  209 1     4      0.00000      2.00053     16.79344     18.98656   #   H13   0.05369549   0.74386922   0.92435820
  210 1     4      0.00000     14.72972     14.41573     10.99556   #   H14   0.45173013   0.65844802   0.53531735
  211 1     4      0.00000      3.51900     17.65332     11.64237   #   H16   0.10109910   0.81316670   0.56680706
  212 1     4      0.00000      3.54931     18.30847     20.11405   #   H17   0.10119562   0.81317447   0.97924967
  213 1     4      0.00000      6.49030     15.78573     10.87767   #   H18   0.19451217   0.72538769   0.52957770
  214 1     4      0.00000      5.85619     17.25707     11.68217   #   H19   0.17406421   0.79378428   0.56874471
  215 1     4      0.00000      5.88659     17.91067     20.12923   #   H20   0.17416592   0.79380911   0.97998882