ITEM: TIMESTEP
0
ITEM: NUMBER OF ATOMS
520
ITEM: BOX BOUNDS xy xz yz pp pp pp
0.0000000000000000e+00 3.2462526789999998e+01 2.8978744000000001e-01
0.0000000000000000e+00 2.2190473269999998e+01 6.5970459999999995e-02
0.0000000000000000e+00 2.0540265179999999e+01 1.5880800900000001e+00
ITEM: ATOMS id type element x y z q
2 11 Zn 1.75349 5.01458 5.20168 0
5 4 H 6.78992 5.59271 5.42118 0
6 4 H 4.92538 4.44528 9.14017 0
7 4 H 7.14093 4.27041 10.1931 0
10 4 H 3.67545 1.53144 2.43252 0
14 4 H 2.07841 1.08695 8.24869 0
27 3 C 6.86488 5.31996 6.46681 0
28 3 C 5.69519 5.04515 7.20698 0
29 3 C 4.41819 5.07554 6.64258 0
30 3 C 5.80939 4.66752 8.55256 0
31 3 C 7.06409 4.56245 9.15359 0
33 3 C 2.06064 0.666697 3.57887 0
34 3 C 3.214 0.614565 2.77872 0
40 3 C 0.678824 6.31202 1.01641 0
43 3 C 1.78388 1.53653 9.19052 0
44 3 C 1.02907 2.7163 9.18418 0
48 3 C 0.765098 3.36906 7.90499 0
49 3 C 0.720667 5.81566 2.39486 0
51 3 C 1.53213 1.96329 4.03055 0
54 6 N 4.20038 5.43883 5.51503 0
58 8 O 1.74356 6.04816 3.1091 0
59 8 O 1.73083 3.93515 7.3096 0
60 8 O 1.15225 7.09133 6.18926 0
61 8 O 2.32895 2.93922 4.19123 0
275 4 H 0.329146 4.36147 0.147368 0
325 8 O 0.303138 2.09952 4.32361 0
186 5 N 6.8468 1.06249 3.0918 0
169 1 C 6.21577 0.361494 2.42131 0
8 4 H 9.18094 4.72787 8.90695 0
26 3 C 8.13495 5.19687 7.06553 0
32 3 C 8.2206 4.8204 8.41649 0
1 11 Zn 15.6878 4.11026 5.59235 0
3 4 H 11.2457 6.77491 3.96012 0
4 4 H 8.71171 6.92122 4.77155 0
9 4 H 10.7623 4.13774 7.27155 0
21 3 C 12.7702 4.97964 5.52417 0
22 3 C 11.4247 5.32181 5.61423 0
23 3 C 10.7996 6.22704 4.78055 0
24 3 C 9.48639 6.29985 5.20119 0
25 3 C 9.3698 5.43967 6.28205 0
45 3 C 15.9262 5.37861 0.0239295 0
53 6 N 13.2737 4.15466 6.2425 0
55 7 N 10.5565 4.84225 6.52825 0
62 8 O 15.9229 6.25348 6.5645 0
64 8 O 15.0808 5.07629 3.43561 0
65 8 O 15.5205 1.87481 4.60804 0
300 3 C 15.3734 5.87208 1.21508 0
309 3 C 15.8874 5.40371 2.50801 0
273 4 H 13.877 7.16084 2.08266 0
301 3 C 14.3078 6.78012 1.1635 0
15 4 H 16.732 4.65485 0.0680908 0
63 8 O 16.3325 3.26405 7.74236 0
293 3 C 16.5428 0.319748 3.09359 0
304 3 C 18.22 3.15793 9.21839 0
308 3 C 17.5924 3.33465 7.89764 0
310 3 C 16.9186 7.02637 6.41874 0
311 3 C 16.5284 1.54793 3.90231 0
262 11 Zn 17.7368 4.47974 4.77718 0
265 4 H 22.7595 4.64995 3.98217 0
266 4 H 21.0335 0.778581 4.77763 0
270 4 H 16.9736 1.39192 1.2722 0
274 4 H 20.076 2.44213 8.39031 0
277 4 H 22.0409 2.00074 9.58756 0
286 3 C 24.1593 3.00459 4.10627 0
287 3 C 22.8724 3.58278 4.12649 0
288 3 C 21.7339 2.78591 4.3726 0
289 3 C 20.4425 3.30926 4.45887 0
290 3 C 21.8935 1.40957 4.58308 0
291 3 C 23.1614 0.830732 4.54848 0
292 3 C 24.2877 1.62007 4.31509 0
294 3 C 16.8339 0.416374 1.72254 0
303 3 C 19.5528 2.72473 9.29508 0
314 6 N 20.1737 4.46289 4.2404 0
318 8 O 17.1374 5.29296 2.69094 0
319 8 O 18.3279 3.67274 6.92021 0
320 8 O 17.8842 6.68682 5.66664 0
321 8 O 17.5332 2.32033 3.84082 0
408 4 H 18.5971 6.17307 0.9127 0
437 2 C 18.9949 7.00542 0.307973 0
271 4 H 16.5602 7.36552 9.06184 0
409 4 H 20.0185 7.22211 0.68841 0
268 4 H 25.2575 1.1411 4.29516 0
261 11 Zn 31.765 4.24216 5.14467 0
263 4 H 27.1121 6.41711 2.88067 0
264 4 H 24.5824 5.59073 2.78305 0
269 4 H 26.8732 2.6623 4.874 0
281 3 C 28.786 4.58279 4.24552 0
282 3 C 27.4243 4.51858 3.96469 0
283 3 C 26.7206 5.49403 3.28853 0
284 3 C 25.4084 5.06402 3.24176 0
285 3 C 25.3686 3.83899 3.89113 0
313 6 N 29.3485 3.70093 4.84154 0
315 7 N 26.6044 3.51119 4.32809 0
322 8 O 31.1792 6.38819 6.03725 0
323 8 O 31.7235 3.33422 7.3662 0
324 8 O 31.8619 5.13357 2.86707 0
50 3 C 32.0154 7.29115 6.35856 0
213 4 H 27.5138 1.11487 8.95979 0
136 4 H 5.27281 11.1053 4.97897 0
137 4 H 7.55161 10.2125 4.75065 0
157 3 C 7.00907 13.6954 6.38002 0
158 3 C 5.89817 12.9463 5.93216 0
159 3 C 4.59061 13.4334 5.96977 0
160 3 C 6.10931 11.6923 5.34184 0
161 3 C 7.40011 11.184 5.20352 0
170 3 C 2.4234 13.0827 1.52037 0
179 3 C 1.80903 13.6395 2.7466 0
188 8 O 2.50169 13.7028 3.80668 0
191 8 O 1.26957 12.5765 6.69917 0
272 4 H 0.873672 9.763 5.82127 0
454 8 O 0.629673 14.1161 2.74853 0
143 4 H 4.23821 12.4724 2.535 0
146 4 H 6.4265 12.3631 0.968034 0
148 4 H 7.05145 9.04726 2.1636 0
149 4 H 7.69703 10.7163 2.06664 0
171 3 C 3.72121 12.543 1.58475 0
172 3 C 4.38316 12.1215 0.426793 0
176 2 C 5.77894 11.5708 0.526311 0
177 2 C 7.08191 9.9587 1.53186 0
187 9 O 5.7623 10.4163 1.33975 0
104 1 C 2.87038 9.15092 9.68555 0
117 10 S 1.66863 10.4479 9.68597 0
121 5 N 3.65662 8.30172 9.68342 0
13 4 H 1.12938 8.34875 1.57097 0
41 3 C 0.938149 7.6669 0.750315 0
135 4 H 6.86099 14.6786 6.81014 0
132 11 Zn 1.88787 14.7126 5.8367 0
184 6 N 4.27329 14.445 6.54057 0
435 3 C 1.77563 13.1627 0.275029 0
215 4 H 7.55828 9.68319 0.56466 0
16 4 H 1.32796 10.1534 0.0539443 0
405 4 H 0.783968 13.5943 0.207921 0
276 4 H 11.7962 7.74478 0.413095 0
278 4 H 14.0409 11.1422 0.265291 0
317 9 O 13.0111 9.391 0.555641 0
138 4 H 9.48893 11.5184 5.49357 0
156 3 C 8.31784 13.1994 6.2093 0
162 3 C 8.4981 11.9329 5.62637 0
139 4 H 10.9539 13.2996 5.18694 0
155 3 C 9.50079 14.0059 6.59817 0
185 7 N 10.704 13.9162 5.9924 0
194 8 O 15.7203 13.4808 2.82708 0
195 8 O 16.0983 12.5389 6.13545 0
152 3 C 11.5264 14.7775 6.6256 0
131 11 Zn 15.858 14.6191 5.06845 0
183 6 N 13.3873 14.3681 5.40581 0
295 3 C 16.6995 9.50398 9.24494 0
296 3 C 16.7233 8.29894 8.5353 0
400 4 H 16.8731 11.6533 9.0936 0
424 3 C 16.9016 10.7112 8.55979 0
12 4 H 17.2986 9.4989 5.39767 0
38 3 C 17.156 9.49756 6.47278 0
297 3 C 16.95 8.29247 7.15036 0
423 3 C 17.1191 10.7057 7.17602 0
395 4 H 23.0652 14.4386 4.63309 0
430 3 C 16.8493 12.2584 1.07887 0
439 3 C 16.7996 12.9983 2.34855 0
441 3 C 17.1845 11.9657 6.44912 0
448 8 O 17.8928 13.1822 2.95824 0
451 8 O 18.2981 12.483 6.12864 0
392 11 Zn 18.0627 14.4746 4.84292 0
403 4 H 17.942 10.6058 1.94707 0
406 4 H 19.6937 9.48714 0.194456 0
431 3 C 17.5497 11.0376 1.03315 0
444 6 N 20.5197 14.5924 4.48154 0
447 9 O 18.1414 8.12345 0.437997 0
181 3 C 32.1725 12.2588 6.44774 0
298 3 C 32.1368 9.77494 6.50216 0
11 4 H 29.951 7.67478 8.06256 0
35 3 C 29.9231 9.82208 8.22478 0
36 3 C 30.4249 8.59994 7.75703 0
37 3 C 31.5319 8.57117 6.89425 0
52 10 S 28.5084 9.87655 9.33136 0
140 4 H 30.0927 11.9645 8.12811 0
163 3 C 31.6112 10.9986 6.9359 0
164 3 C 30.5027 11.0187 7.79352 0
393 4 H 27.3607 13.0093 6.18622 0
394 4 H 24.8473 13.164 5.34672 0
411 3 C 29.0921 14.6658 4.70656 0
412 3 C 27.7217 14.4794 4.57959 0
413 3 C 26.9898 13.6279 5.37868 0
414 3 C 25.6857 13.7139 4.94135 0
415 3 C 25.6761 14.6185 3.88843 0
455 8 O 31.4375 13.0379 5.76593 0
17 4 H 3.60374 20.0505 9.35066 0
141 4 H 3.93542 17.8468 2.63591 0
165 3 C 4.07213 19.9834 2.43207 0
166 3 C 3.48821 18.8 2.89267 0
167 3 C 2.33428 18.842 3.68762 0
180 3 C 1.76854 17.5975 4.21129 0
189 8 O 1.1932 15.7485 7.91469 0
190 8 O 2.50344 16.8233 4.89927 0
402 4 H 0.881718 20.1027 4.65457 0
428 3 C 1.75841 20.0746 4.01747 0
452 8 O 0.560252 17.2855 3.97705 0
20 4 H 3.70413 17.8009 9.97342 0
182 10 S 5.54106 19.8935 1.39744 0
133 4 H 11.2523 16.1659 8.32236 0
134 4 H 8.75271 15.2321 8.28421 0
151 3 C 12.8793 14.9436 6.33367 0
153 3 C 10.8505 15.4293 7.63856 0
154 3 C 9.55459 14.9442 7.61742 0
192 8 O 15.6519 16.759 4.04878 0
193 8 O 16.1021 15.7363 7.24251 0
511 5 N 13.6092 17.8865 0.771432 0
396 4 H 21.3439 16.0106 1.00919 0
397 4 H 23.5995 16.3177 0.074945 0
417 3 C 23.185 14.8447 3.63718 0
418 3 C 22.0424 15.2003 2.89082 0
419 3 C 20.7446 15.0337 3.38312 0
420 3 C 22.2061 15.7326 1.60468 0
421 3 C 23.484 15.9097 1.07107 0
267 4 H 23.562 20.3685 4.71023 0
142 4 H 16.4498 19.5773 4.73653 0
168 3 C 16.6429 19.6605 3.67301 0
401 4 H 17.1898 17.7144 0.923158 0
404 4 H 18.7951 18.2852 7.46908 0
407 4 H 19.3538 20.6543 8.59846 0
410 4 H 20.7143 19.8197 6.83113 0
425 3 C 17.2432 19.8644 0.934567 0
426 3 C 17.0744 18.609 1.52405 0
427 3 C 16.7785 18.5024 2.88884 0
433 3 C 18.4572 18.0403 8.47002 0
434 3 C 17.6058 16.9463 8.66938 0
438 3 C 17.2903 16.1059 7.50958 0
440 3 C 16.7248 17.1831 3.51753 0
449 8 O 18.244 15.7766 6.74107 0
450 8 O 17.7853 16.4842 3.57133 0
473 4 H 22.4288 19.5799 7.30006 0
474 4 H 21.6193 21.1127 7.7504 0
497 3 C 18.9027 18.8049 9.54836 0
501 2 C 19.8486 19.9415 9.30074 0
502 2 C 21.4649 20.0202 7.62727 0
512 9 O 21.0854 19.421 8.84551 0
210 4 H 16.5703 15.7382 10.127 0
240 3 C 17.187 16.615 9.96766 0
471 4 H 20.0333 20.4906 10.2455 0
398 4 H 25.5881 15.6871 1.36219 0
416 3 C 24.4781 15.0148 3.10314 0
422 3 C 24.6134 15.5526 1.81118 0
399 4 H 27.2255 15.7847 2.95756 0
445 7 N 26.9271 15.0834 3.67157 0
144 4 H 29.9232 17.8058 8.20583 0
147 4 H 27.7369 18.2126 9.73506 0
150 4 H 26.8183 20.2216 8.88233 0
173 3 C 30.3771 17.5552 9.15763 0
174 3 C 31.5498 16.7792 9.19671 0
178 3 C 32.1212 16.2315 7.94494 0
391 11 Zn 32.0421 15.1618 4.83949 0
443 6 N 29.7123 15.411 3.99431 0
453 8 O 31.4017 16.1875 6.8972 0
234 1 C 30.9228 17.8852 0.866527 0
242 2 C 27.5781 20.7668 9.48551 0
247 10 S 32.2876 19.0068 0.9345 0
251 5 N 30.0298 17.1504 0.823613 0
252 9 O 28.7705 20.0222 9.59863 0
340 4 H 0.137259 4.27274 10.3814 0
370 3 C 0.674476 3.33104 10.3912 0
305 3 C 0.539303 7.00634 20.4935 0
67 11 Zn 1.80615 5.0033 15.544 0
70 4 H 6.84116 5.6088 15.5682 0
71 4 H 4.89322 6.5411 11.8405 0
72 4 H 7.0615 7.16162 10.8619 0
78 4 H 2.2171 1.18025 12.5432 0
92 3 C 6.89501 5.9516 14.5434 0
93 3 C 5.71279 6.03297 13.7785 0
94 3 C 4.4547 5.7062 14.2916 0
95 3 C 5.78794 6.46943 12.4488 0
96 3 C 7.01592 6.82208 11.8888 0
105 3 C 1.10258 2.77785 11.6062 0
106 3 C 1.86011 1.59303 11.6064 0
107 3 C 2.19832 0.962854 10.3996 0
113 3 C 0.567276 6.57139 18.0347 0
114 3 C 0.900822 3.50671 12.8638 0
116 3 C 0.886643 2.47193 16.9671 0
119 6 N 4.27946 5.31696 15.4188 0
123 8 O 1.91053 3.73539 13.5941 0
124 8 O 1.67341 6.24481 17.5056 0
125 8 O 1.56807 7.0332 14.3073 0
126 8 O 2.01444 3.02562 16.7932 0
75 4 H 0.442821 2.11975 19.5984 0
73 4 H 9.11713 7.0352 12.1844 0
91 3 C 8.14136 6.30768 13.9843 0
97 3 C 8.18487 6.74295 12.6475 0
66 11 Zn 15.8164 5.71521 14.9532 0
69 4 H 8.62442 6.20778 16.8789 0
74 4 H 10.907 6.18181 13.27 0
86 3 C 12.8661 6.00645 15.2471 0
87 3 C 11.4825 6.10832 15.3277 0
88 3 C 10.7838 6.1043 16.5157 0
89 3 C 9.44912 6.18581 16.1799 0
90 3 C 9.38756 6.23239 14.7937 0
118 6 N 13.461 6.04404 14.2014 0
120 7 N 10.638 6.19045 14.2788 0
128 8 O 15.2667 6.76532 17.031 0
130 8 O 15.1447 3.61795 15.863 0
358 3 C 15.2994 1.52852 16.9417 0
373 3 C 15.9949 6.76779 18.0724 0
335 4 H 13.6824 2.43774 18.0471 0
359 3 C 14.135 1.50836 17.7219 0
376 3 C 15.8705 2.80298 16.5117 0
68 4 H 11.1954 6.04357 17.5152 0
369 3 C 15.4753 7.36204 19.3216 0
429 1 C 18.7083 2.09977 19.8604 0
446 5 N 19.5761 2.85947 19.9549 0
80 4 H 16.5505 3.97039 10.3208 0
110 3 C 17.5582 3.57744 10.3862 0
129 8 O 16.4403 4.63986 12.8378 0
365 3 C 18.2288 3.5703 11.6218 0
374 3 C 17.6143 4.14725 12.8397 0
327 11 Zn 17.7547 5.20297 15.9409 0
330 4 H 22.7078 5.00511 16.8638 0
331 4 H 21.0436 1.55739 14.8699 0
338 4 H 20.0948 3.09366 12.6201 0
341 4 H 22.2563 3.07357 11.0247 0
344 4 H 23.7639 1.41936 11.8819 0
351 3 C 24.1325 3.53155 16.1829 0
352 3 C 22.8353 4.04205 16.3843 0
353 3 C 21.7091 3.3375 15.9079 0
354 3 C 20.4139 3.85043 15.981 0
355 3 C 21.893 2.11035 15.2553 0
356 3 C 23.1741 1.58623 15.0842 0
366 3 C 19.5553 3.09913 11.68 0
367 3 C 20.2211 2.67808 10.5244 0
371 2 C 21.6567 2.23283 10.6073 0
379 6 N 20.1272 4.84072 16.6032 0
382 9 O 21.7464 1.09926 11.4446 0
383 8 O 18.3073 4.21291 13.8981 0
384 8 O 17.1423 6.21733 18.0354 0
386 8 O 17.0842 3.08439 16.7568 0
357 3 C 24.2882 2.29352 15.5364 0
385 8 O 18.4246 7.30429 15.0483 0
333 4 H 25.2714 1.8693 15.3788 0
326 11 Zn 31.6864 5.07699 15.3855 0
328 4 H 27.1032 6.32147 18.4683 0
329 4 H 24.5928 5.42459 18.3732 0
334 4 H 26.7702 3.65634 15.1619 0
346 3 C 28.7127 5.20487 16.4148 0
347 3 C 27.3586 5.0377 16.6887 0
348 3 C 26.6917 5.63449 17.7399 0
349 3 C 25.391 5.16898 17.689 0
350 3 C 25.3262 4.29633 16.614 0
378 6 N 29.2241 4.69627 15.451 0
380 7 N 26.5274 4.22762 16.0022 0
387 8 O 31.479 7.19411 14.2988 0
388 8 O 31.5767 6.21589 17.5042 0
389 8 O 31.8618 3.93688 13.2141 0
390 8 O 31.9353 3.00927 16.5174 0
18 4 H 3.48915 11.8297 17.2827 0
47 2 C 2.60737 11.2683 17.6518 0
57 9 O 2.65495 11.2412 19.0662 0
109 3 C 0.591465 7.47449 19.1763 0
76 4 H 1.05116 8.15518 11.436 0
85 4 H 2.69792 10.2406 17.2468 0
100 3 C 1.24584 10.3053 11.4314 0
101 3 C 0.982819 9.06277 12.0236 0
102 3 C 0.648064 8.98593 13.381 0
115 3 C 0.512831 7.67589 14.0153 0
205 4 H 1.38248 12.4259 11.7472 0
228 3 C 0.832697 11.4019 13.5693 0
229 3 C 1.17128 11.4672 12.2069 0
246 3 C 0.814136 12.6447 14.359 0
256 8 O 1.79466 13.4465 14.2627 0
337 4 H 0.32835 10.0935 15.2108 0
363 3 C 0.560316 10.1565 14.1535 0
209 4 H 4.33499 13.547 18.8251 0
212 4 H 6.2326 12.9076 20.0526 0
238 3 C 3.81188 13.8392 19.7272 0
239 3 C 2.50153 14.3384 19.644 0
243 3 C 1.87136 14.5281 18.3246 0
518 8 O 0.61048 14.4411 18.1763 0
19 4 H 1.70944 11.7734 17.2328 0
42 3 C 1.03913 9.72218 19.9666 0
46 2 C 1.3662 11.1539 19.6521 0
79 4 H 0.843245 9.16854 17.8943 0
108 3 C 0.814025 8.82623 18.9201 0
82 4 H 0.551145 11.6088 19.0448 0
201 4 H 5.23643 14.1896 11.181 0
225 3 C 6.07656 14.5502 11.7638 0
226 3 C 7.36857 14.4042 11.2536 0
202 4 H 7.51595 13.9418 10.2858 0
302 3 C 13.8651 8.79359 20.4688 0
306 2 C 12.7288 9.78308 20.4247 0
307 2 C 13.8176 11.8219 20.2396 0
345 4 H 14.7527 11.3295 19.8926 0
279 4 H 13.2052 12.1496 19.3709 0
299 1 C 15.267 10.7945 11.0716 0
316 5 N 14.5133 11.6719 11.1054 0
339 4 H 14.0052 8.59542 18.3279 0
368 3 C 14.4125 8.28188 19.2819 0
342 4 H 12.3828 9.97198 19.3811 0
203 4 H 9.46046 14.7214 11.5668 0
204 4 H 11.0235 14.6224 13.3024 0
258 8 O 15.5477 14.4492 17.2317 0
175 3 C 16.4847 14.4463 20.4241 0
432 3 C 17.89 12.0048 20.3465 0
436 2 C 18.7817 10.7942 20.2804 0
377 10 S 21.767 10.4317 11.9843 0
312 10 S 16.4196 9.45513 11.023 0
127 8 O 16.5089 7.82877 14.1016 0
260 8 O 16.4928 13.2344 14.2382 0
77 4 H 16.7584 10.6106 14.6775 0
103 3 C 17.7011 10.5856 14.1427 0
362 3 C 18.3237 9.35669 13.8899 0
375 3 C 17.7201 8.10892 14.3639 0
336 4 H 20.048 8.37428 13.0378 0
360 3 C 20.1843 10.5101 12.8359 0
361 3 C 19.5627 9.32335 13.2333 0
364 1 C 22.5919 11.5148 13.1119 0
381 5 N 23.1313 12.2241 13.8502 0
461 4 H 21.0639 14.7809 19.3543 0
462 4 H 23.2554 14.4202 20.4093 0
465 4 H 20.0583 12.6591 12.8145 0
488 3 C 18.3295 11.7823 13.7681 0
489 3 C 19.5678 11.7386 13.1073 0
506 3 C 17.751 13.0757 14.1575 0
516 8 O 18.5292 14.0265 14.4798 0
469 4 H 17.7149 12.1728 18.2069 0
472 4 H 18.9631 10.5175 19.215 0
475 4 H 19.1026 8.2439 19.7926 0
498 3 C 17.4498 12.6078 19.1646 0
499 3 C 16.7623 13.8258 19.1969 0
503 3 C 16.6068 14.5331 17.9294 0
39 1 C 29.2806 8.88793 10.5765 0
56 5 N 29.7861 8.24049 11.3916 0
520 8 O 31.919 12.9548 15.0805 0
470 4 H 0.899744 15.8438 10.488 0
81 4 H 4.30496 20.5844 10.9272 0
83 4 H 2.97469 17.2969 11.5226 0
84 4 H 4.45857 18.295 11.5649 0
98 3 C 1.07009 21.8079 17.673 0
111 2 C 3.35566 20.3354 10.3998 0
112 2 C 3.50368 18.127 11.0185 0
122 9 O 2.68562 19.2768 11.0503 0
223 3 C 5.87084 15.1491 13.0143 0
197 11 Zn 1.89753 15.6287 15.1974 0
200 4 H 6.84227 16.0539 14.7237 0
222 3 C 6.98775 15.6033 13.7498 0
224 3 C 4.56335 15.2375 13.5048 0
232 3 C 0.927451 19.3967 17.6033 0
245 3 C 0.943734 18.1431 16.8518 0
249 6 N 4.3048 15.7736 14.5519 0
253 8 O 1.19908 16.417 13.1074 0
254 8 O 2.60027 14.8546 17.3369 0
255 8 O 1.92927 17.8411 16.1078 0
467 4 H 1.33145 20.6323 15.8849 0
493 3 C 1.14413 20.6128 16.9531 0
99 3 C 0.799597 21.7913 19.0472 0
206 4 H 0.492727 18.4317 19.4833 0
230 3 C 0.586213 20.577 19.7065 0
231 3 C 0.651896 19.378 18.9803 0
145 4 H 16.0294 15.4298 20.4426 0
494 1 C 13.1569 20.0316 20.4397 0
507 10 S 12.3681 20.8835 19.1073 0
221 3 C 8.29465 15.4479 13.246 0
227 3 C 8.47166 14.8454 11.9887 0
199 4 H 8.60944 17.5454 15.2615 0
219 3 C 9.45446 16.939 14.964 0
220 3 C 9.46713 15.9134 14.0304 0
196 11 Zn 15.8863 15.3958 15.0211 0
198 4 H 11.1014 17.7796 16.1631 0
216 3 C 12.8621 15.9398 14.947 0
217 3 C 11.4915 16.1078 14.7743 0
218 3 C 10.7463 17.0641 15.4322 0
248 6 N 13.4795 15.071 14.3879 0
250 7 N 10.7153 15.4048 13.9221 0
257 8 O 15.3305 17.5552 15.899 0
466 4 H 13.9383 18.7504 17.8936 0
490 3 C 13.8467 20.8924 18.0896 0
491 3 C 14.4081 19.6921 17.6351 0
233 3 C 16.1718 20.929 16.5223 0
492 3 C 15.5714 19.7069 16.8495 0
505 3 C 16.1225 18.451 16.3297 0
483 3 C 21.8739 15.7088 17.5738 0
485 3 C 21.9602 15.099 18.8333 0
486 3 C 23.2017 14.8872 19.4341 0
481 3 C 24.3215 15.8761 17.5151 0
280 4 H 23.7064 20.9198 10.4639 0
442 10 S 17.6718 21.5427 19.713 0
332 4 H 23.5954 21.2375 14.5851 0
343 4 H 23.4256 20.3618 12.1427 0
372 2 C 23.3696 21.2446 11.4736 0
207 4 H 17.0604 20.9479 15.901 0
259 8 O 16.3215 16.3039 12.7584 0
457 11 Zn 17.9677 16.15 15.3975 0
460 4 H 23.0076 16.5581 15.9375 0
468 4 H 18.8789 19.032 11.6877 0
482 3 C 23.0618 16.1048 16.9194 0
484 3 C 20.6057 15.8496 16.9994 0
495 3 C 17.6532 17.3636 11.0657 0
496 3 C 18.5014 18.4635 10.8455 0
504 3 C 17.3887 16.9266 12.4481 0
509 6 N 20.413 16.4189 15.955 0
513 8 O 18.2808 17.1194 13.3292 0
514 8 O 17.6245 15.1385 17.4761 0
515 8 O 17.3781 18.2591 16.293 0
214 4 H 27.1665 21.0258 10.4866 0
237 3 C 29.767 17.9959 10.3421 0
241 2 C 28.505 18.8119 10.2759 0
500 3 C 32.1165 16.4608 10.4419 0
463 4 H 25.3224 15.0912 19.2727 0
487 3 C 24.3749 15.2686 18.7811 0
464 4 H 26.985 14.8665 17.6617 0
459 4 H 24.9209 17.9101 15.4957 0
479 3 C 25.7 17.2564 15.8647 0
480 3 C 25.5773 16.2551 16.8161 0
208 4 H 29.8489 17.9579 12.499 0
211 4 H 28.1305 19.0203 11.3048 0
235 3 C 31.5004 16.8778 11.6336 0
236 3 C 30.3266 17.642 11.5787 0
244 3 C 32.0507 16.4595 12.9321 0
456 11 Zn 31.9644 15.2025 16.0308 0
458 4 H 27.475 17.9359 14.749 0
476 3 C 29.0128 15.9867 16.0916 0
477 3 C 27.6555 16.282 16.2013 0
478 3 C 27.0249 17.2736 15.4777 0
508 6 N 29.5384 15.0989 16.7138 0
510 7 N 26.777 15.6618 17.0174 0
517 8 O 32.0774 17.3403 16.9786 0
519 8 O 31.2702 16.1001 13.871 0
ITEM: TIMESTEP
2500
ITEM: NUMBER OF ATOMS
520
ITEM: BOX BOUNDS xy xz yz pp pp pp
6.0400992071639159e-01 3.4381263260842580e+01 9.7010735270045734e-01
-7.3492699350804869e-01 2.0652810861160340e+01 1.9083969388585287e+00
-2.6860723725569358e-02 2.0567125903725675e+01 -6.8450931234774770e-01
ITEM: ATOMS id type element x y z q
2 11 Zn 2.7796 4.23159 5.46405 0
5 4 H 7.67127 5.52369 5.92581 0
6 4 H 5.81716 3.78971 9.41614 0
10 4 H 5.3913 0.69075 3.3432 0
14 4 H 2.7747 0.0356031 7.89545 0
27 3 C 7.73308 5.17336 6.94921 0
28 3 C 6.58346 4.66955 7.59201 0
29 3 C 5.34771 4.5581 6.95615 0
30 3 C 6.68627 4.18873 8.90449 0
31 3 C 7.9159 4.18968 9.56238 0
33 3 C 3.5079 -0.174025 3.95895 0
34 3 C 5.82026 20.4765 3.53953 0
40 3 C 1.95419 5.81881 1.28361 0
43 3 C 2.66121 0.416101 8.9048 0
44 3 C 2.1112 1.69058 9.10621 0
48 3 C 1.8545 2.5226 7.93794 0
49 3 C 1.82941 5.07763 2.54226 0
51 3 C 2.86159 1.12752 4.23857 0
54 6 N 5.14533 4.9236 5.82758 0
58 8 O 2.79899 5.11059 3.35818 0
59 8 O 2.73277 3.37436 7.61458 0
60 8 O 2.06947 6.31569 6.17466 0
61 8 O 3.56508 2.0889 4.68176 0
275 4 H 31.7118 4.41588 0.103694 0
325 8 O 1.60323 1.27839 4.1214 0
186 5 N 8.25712 0.261254 4.84732 0
272 4 H 1.98115 8.8896 5.65575 0
148 4 H 9.0085 9.6187 0.504351 0
104 1 C 2.9846 7.2976 9.34517 0
117 10 S 1.84844 8.61845 9.64924 0
121 5 N 3.72732 6.43216 9.14929 0
13 4 H 3.16426 7.36743 2.18126 0
41 3 C 2.72898 6.99049 1.26267 0
305 3 C 1.3857 5.33627 0.0970132 0
107 3 C 3.15254 -0.32395 9.98904 0
26 3 C 8.97824 5.16226 7.60704 0
32 3 C 9.05761 4.66861 8.91882 0
136 4 H 6.83679 9.64655 7.67025 0
42 3 C 2.98715 7.65517 0.0593518 0
137 4 H 9.10139 9.0636 8.44618 0
8 4 H 10.0042 4.64432 9.44399 0
1 11 Zn 16.3401 3.83801 5.60026 0
3 4 H 11.9861 7.12267 4.62904 0
4 4 H 9.48078 7.17872 5.54427 0
9 4 H 11.6232 4.18624 7.69474 0
21 3 C 13.5403 5.12441 5.90257 0
22 3 C 12.2352 5.53944 6.15056 0
23 3 C 11.5806 6.52167 5.43312 0
24 3 C 10.2826 6.54887 5.9068 0
25 3 C 10.2061 5.58371 6.89818 0
45 3 C 15.9269 5.15028 0.0104353 0
53 6 N 14.057 4.23854 6.5348 0
55 7 N 11.4045 4.98327 7.05547 0
62 8 O 17.0981 5.94998 6.50662 0
64 8 O 15.6004 4.84809 3.58391 0
65 8 O 15.6252 1.68591 4.66894 0
300 3 C 15.4734 5.45803 1.30079 0
309 3 C 16.2131 4.97093 2.47929 0
273 4 H 13.8967 6.40071 2.45068 0
301 3 C 14.2697 6.17233 1.45903 0
63 8 O 17.1038 2.82023 7.62354 0
311 3 C 16.4083 1.07268 3.87477 0
276 4 H 11.5533 6.66153 1.14894 0
317 9 O 12.3703 8.54404 1.12068 0
302 3 C 13.5251 6.57048 0.338509 0
306 2 C 12.2039 7.28481 0.499649 0
15 4 H 18.7473 3.89418 20.4794 0
270 4 H 15.3242 0.752584 1.415 0
304 3 C 19.1121 2.21649 8.78876 0
308 3 C 18.3524 2.58588 7.57784 0
310 3 C 18.2121 6.44069 6.1421 0
262 11 Zn 18.2335 3.70049 4.4409 0
265 4 H 23.056 3.17453 3.19008 0
266 4 H 21.1703 -0.131826 5.2277 0
274 4 H 20.9069 1.67697 7.70542 0
277 4 H 23.0165 1.25514 8.65448 0
286 3 C 24.3481 1.54121 3.73977 0
287 3 C 23.1081 2.18965 3.63945 0
288 3 C 21.9522 1.5968 4.18069 0
289 3 C 20.7218 2.24755 4.19441 0
290 3 C 22.0464 0.338961 4.79573 0
291 3 C 24.2445 20.3827 4.86724 0
292 3 C 24.4229 0.280268 4.35219 0
303 3 C 20.4574 1.81154 8.68233 0
314 6 N 20.52 3.2963 3.63671 0
318 8 O 17.4341 4.61978 2.39445 0
319 8 O 18.9819 2.78727 6.49647 0
320 8 O 18.913 5.84404 5.26777 0
321 8 O 17.5511 1.56046 3.61497 0
408 4 H 18.3821 7.17945 1.32257 0
271 4 H 19.5213 6.72463 8.49376 0
264 4 H 24.9193 3.32152 1.47908 0
295 3 C 19.8719 8.85097 8.52643 0
296 3 C 19.3804 7.66239 7.96936 0
12 4 H 17.9688 8.92154 5.13189 0
38 3 C 18.5106 8.89867 6.07105 0
297 3 C 18.7043 7.68464 6.7378 0
447 9 O 16.773 8.12465 0.455379 0
80 4 H 17.5389 2.7976 10.1453 0
367 3 C 21.2462 1.64503 9.83009 0
268 4 H 25.3702 -0.23732 4.43804 0
285 3 C 25.5759 2.211 3.2794 0
110 3 C 18.5567 2.43627 10.0586 0
371 2 C 22.7149 1.3273 9.72443 0
261 11 Zn 31.679 3.38374 5.01496 0
263 4 H 27.4407 4.20743 1.48539 0
269 4 H 26.9297 1.60344 4.82033 0
281 3 C 28.9115 3.17881 3.69101 0
282 3 C 27.6066 2.93758 3.28723 0
283 3 C 26.998 3.5146 2.18953 0
284 3 C 25.6935 3.05611 2.18722 0
313 6 N 29.3574 2.66494 4.68338 0
315 7 N 26.7448 2.1367 3.94074 0
322 8 O 30.9188 5.55393 5.9582 0
323 8 O 31.765 2.29783 7.17234 0
324 8 O 31.6788 4.42034 2.82994 0
50 3 C 31.7184 6.50877 6.23665 0
213 4 H 29.3495 0.872317 9.82967 0
298 3 C 31.9399 8.99739 6.18453 0
11 4 H 29.4303 7.13318 7.55521 0
35 3 C 29.5059 9.28153 7.53654 0
36 3 C 29.9933 8.00484 7.24371 0
37 3 C 31.2114 7.85238 6.5691 0
52 10 S 27.971 9.45111 8.44652 0
177 2 C 10.6579 9.83631 20.5069 0
187 9 O 7.36977 10.7764 0.0619221 0
16 4 H 3.24537 9.74167 0.366949 0
169 1 C 8.81205 20.2413 4.04504 0
157 3 C 8.33245 12.6993 7.33524 0
158 3 C 7.31143 11.724 7.28714 0
159 3 C 6.0242 12.0152 6.81956 0
160 3 C 7.6017 10.4142 7.69723 0
161 3 C 8.88583 10.0784 8.13637 0
170 3 C 3.72042 12.8164 1.01229 0
179 3 C 3.2561 13.1349 2.38576 0
188 8 O 4.02763 12.9438 3.37956 0
191 8 O 2.52591 11.5807 6.15309 0
454 8 O 2.12627 13.6862 2.57693 0
143 4 H 5.72121 12.3005 1.65514 0
146 4 H 9.51461 12.1257 20.2845 0
171 3 C 5.05594 12.4265 0.809047 0
135 4 H 8.1347 13.7134 7.00766 0
132 11 Zn 3.46624 13.7269 5.57103 0
184 6 N 5.73112 13.1149 6.42649 0
435 3 C 4.79706 12.3405 20.4861 0
405 4 H 1.87392 13.3769 0.03349 0
17 4 H 4.78638 18.7873 8.68797 0
141 4 H 6.28623 17.1071 3.53806 0
165 3 C 6.46959 19.2411 3.3814 0
166 3 C 5.77734 18.057 3.65203 0
167 3 C 4.43754 18.0901 4.06869 0
180 3 C 3.74025 16.8309 4.39745 0
189 8 O 2.86816 14.5584 7.76155 0
190 8 O 4.37895 15.8827 4.95493 0
402 4 H 2.76211 19.3589 4.55539 0
428 3 C 3.78815 19.3288 4.20762 0
452 8 O 2.50557 16.6834 4.1356 0
20 4 H 4.98224 16.4891 9.40224 0
182 10 S 8.17926 19.1375 2.8192 0
247 10 S 3.54744 19.5828 0.575225 0
111 2 C 4.8383 19.076 9.76328 0
81 4 H 5.90699 19.2422 10.0332 0
149 4 H 9.36295 11.3639 0.302125 0
294 3 C 16.449 20.5155 1.93034 0
307 2 C 12.758 9.51422 0.172594 0
202 4 H 9.76243 10.3088 11.0275 0
278 4 H 12.9925 10.4594 0.703335 0
138 4 H 10.8911 10.7598 8.48432 0
156 3 C 9.6279 12.3589 7.75856 0
162 3 C 9.89725 11.0425 8.15955 0
139 4 H 12.2785 12.1831 6.83466 0
155 3 C 10.7135 13.3585 7.70236 0
185 7 N 11.939 13.101 7.20104 0
194 8 O 16.343 13.0129 3.17611 0
195 8 O 17.5473 11.8351 6.06064 0
152 3 C 12.61 14.2722 7.19703 0
131 11 Zn 16.8869 13.9884 5.33373 0
183 6 N 14.5215 13.548 6.20416 0
133 4 H 12.0845 16.3213 7.83832 0
134 4 H 9.73629 15.1998 8.44437 0
151 3 C 13.902 14.4564 6.69826 0
153 3 C 11.8203 15.278 7.7233 0
154 3 C 10.6049 14.6974 8.03886 0
192 8 O 16.2618 16.1851 4.54909 0
511 5 N 12.3155 0.0272352 19.4924 0
293 3 C 16.9752 20.5134 3.23605 0
430 3 C 16.8817 12.2768 0.984202 0
439 3 C 17.236 12.8298 2.2875 0
431 3 C 16.7399 10.8939 0.822337 0
401 4 H 16.1377 17.1588 1.45598 0
425 3 C 16.1491 19.3021 1.28194 0
426 3 C 16.3573 18.0953 1.95584 0
427 3 C 16.8761 18.0868 3.2572 0
279 4 H 13.8464 9.03119 20.0439 0
424 3 C 19.7 10.0596 7.83803 0
423 3 C 19.0088 10.0847 6.6207 0
403 4 H 16.8706 10.2473 1.68156 0
193 8 O 17.5962 14.9084 7.47167 0
400 4 H 20.0713 10.983 8.26716 0
395 4 H 23.8377 14.2616 3.28361 0
441 3 C 18.7244 11.3653 5.984 0
448 8 O 18.4422 13.1524 2.5119 0
451 8 O 19.648 12.0294 5.41734 0
392 11 Zn 19.0113 14.148 4.53745 0
444 6 N 21.3376 14.5846 3.7029 0
396 4 H 22.0591 18.0225 2.13187 0
397 4 H 24.2523 18.7992 1.32167 0
417 3 C 23.9191 15.2495 2.84606 0
418 3 C 22.7815 16.0809 2.76106 0
419 3 C 21.5259 15.6786 3.23229 0
420 3 C 22.9159 17.3626 2.20666 0
421 3 C 24.1589 17.8081 1.74678 0
267 4 H 24.3105 19.4108 5.33679 0
142 4 H 17.622 19.2854 4.88954 0
168 3 C 17.1903 19.2949 3.89507 0
404 4 H 20.5929 17.2513 7.78533 0
407 4 H 21.4785 19.2988 9.2807 0
410 4 H 22.6213 18.2967 7.22817 0
433 3 C 20.3231 16.8326 8.74669 0
434 3 C 19.3726 15.8043 8.8121 0
438 3 C 18.8155 15.2663 7.5606 0
440 3 C 17.1627 16.8028 3.89809 0
449 8 O 19.586 15.1383 6.56059 0
450 8 O 18.3082 16.2781 3.73621 0
473 4 H 24.372 18.2219 7.61462 0
474 4 H 23.4374 19.6694 8.0941 0
497 3 C 20.9248 17.3265 9.90877 0
501 2 C 21.9399 18.4307 9.81106 0
502 2 C 23.3857 18.5667 7.98673 0
512 9 O 23.1234 17.9285 9.21678 0
210 4 H 18.3065 14.4499 10.1107 0
240 3 C 19.0241 15.2604 10.0595 0
416 3 C 25.1729 15.6987 2.39519 0
422 3 C 25.2841 16.9844 1.84488 0
280 4 H 24.7637 -0.210983 9.34132 0
394 4 H 25.5608 12.8207 2.1049 0
462 4 H 22.8419 14.0743 0.499398 0
181 3 C 32.1651 11.4884 6.00158 0
140 4 H 29.8177 11.4015 7.33413 0
163 3 C 31.4355 10.2823 6.44046 0
164 3 C 30.2136 10.4163 7.11765 0
393 4 H 28.0246 12.028 2.75466 0
411 3 C 29.6595 14.1898 3.5656 0
412 3 C 28.359 14.1892 3.07078 0
413 3 C 27.6617 13.0475 2.72803 0
414 3 C 26.3862 13.4584 2.39364 0
415 3 C 26.3656 14.836 2.5397 0
455 8 O 31.5226 12.4583 5.48848 0
398 4 H 26.2401 17.3501 1.49128 0
399 4 H 27.8323 16.2678 3.16352 0
445 7 N 27.5764 15.2806 2.9358 0
144 4 H 31.0051 17.2761 8.52175 0
150 4 H 27.9122 -0.200475 9.78611 0
173 3 C 31.4374 16.8202 9.40491 0
174 3 C 32.3549 15.7644 9.27314 0
178 3 C 32.7108 15.2472 7.93013 0
391 11 Zn 32.4604 14.5652 4.76555 0
443 6 N 30.215 15.2059 3.89583 0
453 8 O 31.9528 15.4761 6.93394 0
234 1 C 2.219 18.5879 1.18228 0
251 5 N 32.2503 17.9368 1.58564 0
7 4 H 7.98813 3.79986 10.5693 0
340 4 H 32.5488 3.22984 10.5421 0
370 3 C 2.02097 2.2214 10.3955 0
67 11 Zn 3.8096 3.42338 15.3312 0
70 4 H 8.60216 4.56342 15.2887 0
71 4 H 6.64751 6.09713 11.7593 0
72 4 H 8.77935 7.09109 11.0222 0
78 4 H 3.4844 -0.328573 12.119 0
92 3 C 8.63355 5.11383 14.3555 0
93 3 C 7.47158 5.24362 13.5702 0
94 3 C 6.25171 4.69523 13.9651 0
95 3 C 7.5317 5.97329 12.3744 0
96 3 C 8.73842 6.53849 11.9523 0
105 3 C 2.49506 1.48165 11.4846 0
106 3 C 3.06912 0.217557 11.2794 0
113 3 C 3.12615 4.71577 18.2046 0
114 3 C 2.54867 2.09099 12.8108 0
116 3 C 3.35063 0.728364 16.7512 0
119 6 N 6.1565 3.97866 14.9282 0
123 8 O 3.68066 2.24887 13.3545 0
124 8 O 4.00778 4.58514 17.3078 0
125 8 O 3.22471 5.43594 14.2177 0
126 8 O 4.37682 1.415 16.4574 0
75 4 H 4.14013 0.318681 19.2773 0
47 2 C 5.88779 7.81343 0.508188 0
57 9 O 4.96377 8.79276 0.934135 0
109 3 C 3.54598 5.31028 19.48 0
76 4 H 32.6376 6.4459 11.6207 0
85 4 H 5.48514 6.79021 0.667212 0
100 3 C 2.02422 8.57689 11.4397 0
101 3 C 32.8135 7.37454 12.1508 0
102 3 C 32.9668 7.36015 13.5421 0
115 3 C 33.0267 6.07258 14.2366 0
228 3 C 2.42454 9.76771 13.5265 0
337 4 H 2.46354 8.54432 15.307 0
363 3 C 33.2128 8.55885 14.2335 0
46 2 C 3.86968 8.8852 0.0371644 0
79 4 H 4.5794 6.94808 18.5235 0
108 3 C 4.3569 6.45958 19.4653 0
82 4 H 6.12093 8.44928 19.6007 0
18 4 H 6.80617 7.90647 1.12359 0
229 3 C 2.27891 9.76795 12.1299 0
19 4 H 8.09098 7.2688 20.0384 0
98 3 C 3.48474 -0.563722 17.4225 0
99 3 C 3.89036 -0.60155 18.7618 0
215 4 H 10.9155 9.62581 19.445 0
73 4 H 10.8148 6.84686 12.3888 0
91 3 C 9.84135 5.69387 13.942 0
97 3 C 9.89082 6.39532 12.728 0
66 11 Zn 17.2473 4.06867 14.8922 0
69 4 H 10.2407 5.66504 16.8346 0
74 4 H 12.5453 5.28831 13.2679 0
86 3 C 14.4423 4.88765 15.2647 0
87 3 C 13.0974 5.20713 15.339 0
88 3 C 12.3923 5.3223 16.5197 0
89 3 C 11.0788 5.54456 16.1607 0
90 3 C 11.0483 5.55517 14.7749 0
118 6 N 15.0214 4.82317 14.2133 0
120 7 N 12.284 5.36461 14.2768 0
128 8 O 16.8383 4.81204 17.1165 0
130 8 O 16.2665 1.98797 15.5058 0
358 3 C 16.137 -0.244458 16.2923 0
373 3 C 17.5518 4.50695 18.123 0
335 4 H 14.2316 0.742114 16.5818 0
359 3 C 14.7543 -0.206137 16.543 0
376 3 C 16.8761 0.997946 16.0169 0
68 4 H 12.7809 5.22802 17.526 0
369 3 C 17.1049 4.87276 19.4778 0
345 4 H 15.5652 8.52896 20.2206 0
339 4 H 15.3227 5.87932 18.7886 0
368 3 C 15.9041 5.5778 19.6518 0
342 4 H 13.5681 6.68726 20.1233 0
437 2 C 18.1099 7.67853 0.371137 0
409 4 H 18.8129 8.52963 0.221861 0
406 4 H 19.0457 7.96921 19.0255 0
446 5 N 18.5385 -0.403379 19.0971 0
129 8 O 17.696 3.26171 12.6612 0
365 3 C 19.3381 2.28098 11.2125 0
374 3 C 18.817 2.67428 12.5371 0
327 11 Zn 19.0835 3.18646 15.7588 0
330 4 H 23.8514 2.24186 17.0162 0
331 4 H 22.3442 -0.299279 13.8631 0
338 4 H 21.3064 1.78151 11.9676 0
341 4 H 23.2758 2.17191 10.1874 0
344 4 H 24.9286 0.663853 10.9391 0
351 3 C 25.2828 0.918365 16.102 0
352 3 C 23.9986 1.45705 16.2831 0
353 3 C 22.927 1.03014 15.4709 0
354 3 C 21.6606 1.61062 15.5378 0
355 3 C 23.1507 0.0378458 14.5049 0
356 3 C 24.4213 -0.518943 14.3451 0