Created by Ryther's code on 2025-08-05 19:29:05.193400, modified by xyan11@uic.edu. 

    560 atoms
    640 bonds
    1096 angles
    1312 dihedrals
    256 impropers

    9 atom types
    13 bond types
    19 angle types
    8 dihedral types
    2 improper types

0.00000000 31.56463518 xlo xhi
0.00000000 20.59950767 ylo yhi
0.00000000 20.53711746 zlo zhi
0.13261061 -0.03161456 1.60220815 xy xz yz 

Masses 

    1    12.0107  #   C
    2    12.0107  #   C
    3     35.453  #  Cl
    4    1.00794  #   H
    5    14.0067  #   N
    6    14.0067  #   N
    7    15.9994  #   O
    8    15.9994  #   O
    9      65.38  #  Zn

Pair Coeffs

    1       0.10500      3.43085  #  C_3 C_3
    2       0.10500      3.43085  #  C_R C_R
    3       0.22700      3.51638  #  Cl_f Cl_f
    4       0.04400      2.57113  #  H_ H_
    5       0.06900      3.26069  #  N_2 N_2
    6       0.06900      3.26069  #  N_R N_R
    7       0.06000      3.11815  #  O_2_M O_2_M
    8       0.06000      3.11815  #  O_R O_R
    9       0.06000      2.58361  #  Zn6f3 Zn6f3

Bond Coeffs

    1      54.94924      2.40433  #  O_2_M Zn6f3 bond order=0.5
    2      55.07699      2.48452  #  N_2 Zn6f3 bond order=0.5
    3     357.44038      1.08142  #  C_R H_ bond order=1.0
    4     331.06939      1.10940  #  C_3 H_ bond order=1.0
    5     462.65505      1.37926  #  C_R C_R bond order=1.5
    6     931.53598      1.20133  #  C_R N_2 bond order=3.0
    7     646.62465      1.31194  #  C_R O_R bond order=1.5
    8     391.66951      1.45800  #  C_R C_R bond order=1.0
    9     561.44721      1.42220  #  C_R N_R bond order=1.0
    10    529.68309      1.45008  #  C_3 N_R bond order=1.0
    11    277.92768      1.75058  #  C_R Cl_f bond order=1.0
    12    714.55744      1.26901  #  C_R O_2_M bond order=1.5
    13    928.96322      1.32250  #  N_R N_R bond order=1.5

Angle Coeffs

    1  cosine/periodic         67.02484            1            4  #  O_2_M Zn6f3 O_2_M
    2  cosine/periodic         70.47472            1            4  #  N_2 Zn6f3 O_2_M
    3  cosine/periodic        179.74893           -1            3  #  C_R C_R N_2
    4  cosine/periodic        144.05325           -1            3  #  C_R C_R O_R
    5  cosine/periodic        111.29751           -1            3  #  C_R C_R C_R
    6  cosine/periodic         57.28902           -1            3  #  C_R C_R H_
    7  cosine/periodic        102.18328           -1            3  #  C_R C_R C_R
    8  cosine/periodic        131.74425           -1            3  #  C_R C_R O_R
    9  cosine/periodic        141.32633           -1            3  #  C_R C_R N_R
    10 fourier                169.98920      0.34375      0.37500      0.28125  #  H_ C_3 N_R
    11 fourier                 75.49653      0.34375      0.37500      0.28125  #  H_ C_3 H_
    12 cosine/periodic         91.89380           -1            3  #  C_R C_R Cl_f
    13 cosine/periodic        137.71425           -1            3  #  C_R C_R O_2_M
    14 cosine/periodic        206.77843           -1            3  #  O_2_M C_R O_2_M
    15 fourier                 48.02888      0.36401      0.41847      0.28800  #  C_R N_2 Zn6f3
    16 cosine/periodic        150.06495           -1            3  #  C_R N_R N_R
    17 cosine/periodic        145.43261           -1            3  #  C_3 N_R N_R
    18 fourier                322.57640      0.35263      0.39441      0.28421  #  C_R O_R C_R
    19 cosine/periodic         21.77718           -1            3  #  C_R O_2_M Zn6f3

Dihedral Coeffs

    1       6.73711           -1            2  #  X C_R C_R X bond order=1.5
    2      27.96100           -1            2  #  X C_R N_2 X bond order=3.0
    3       6.73711           -1            2  #  X C_R O_R X bond order=1.5
    4       1.25000           -1            2  #  X C_R C_R X bond order=1.0
    5       2.50000           -1            2  #  X C_R N_R X bond order=1.0
    6       0.33333           -1            6  #  X C_3 N_R X bond order=1.0
    7       6.73711           -1            2  #  X C_R O_2_M X bond order=1.5
    8      13.47422           -1            2  #  X N_R N_R X bond order=1.5

Improper Coeffs

    1       2.00000      1.00000     -1.00000      0.00000            1  #  C_R X X X O_2 present=False
    2      16.66667      1.00000     -1.00000      0.00000            1  #  C_R X X X O_2 present=True

Atoms # a, b, c, alpha, beta, gamma: 31.5646351755, 20.5999345123, 20.5995452381, 85.5397572949, 90.0879330849, 89.6311599672 $$$atoms$$$

    1 1     9      0.00000     14.60919      4.70456      5.85543   #   Zn1   0.46225327   0.20620603   0.28511461
    2 1     9      0.00000      1.75720      4.68575      5.86115   #   Zn2   0.05509331   0.20527152   0.28539318
    3 1     4      0.00000     12.16349      1.14378      6.91974   #    H1   0.38556608   0.02931783   0.33693810
    4 1     4      0.00000      9.88671     10.22745      7.28453   #    H2   0.31160628   0.46890183   0.35470079
    5 1     4      0.00000      7.11253      3.76614      6.13601   #    H3   0.22496116   0.15958824   0.29877679
    6 1     4      0.00000      3.65372      1.31827      6.87252   #    H4   0.11592926   0.03796757   0.33463891
    7 1     4      0.00000      5.18383      9.71412      7.44361   #    H5   0.16272935   0.44337986   0.36244674
    8 1     4      0.00000      7.62294      9.94850      7.37225   #    H6   0.23995053   0.45502798   0.35897207
    9 1     4      0.00000      0.08583      1.68855      3.90788   #    H8   0.00262763   0.06717048   0.19028364
   10 1     4      0.00000      0.12531      7.69949      3.91604   #    H9   0.00265301   0.35893964   0.19068125
   11 1     4      0.00000      0.49475      9.84384      7.62715   #   H10   0.01416002   0.44898211   0.37138385
   12 1     4      0.00000     14.60908     10.26262     10.19349   #   H12   0.46139688   0.45959193   0.49634478
   13 1     4      0.00000     15.49473      8.69462     10.02780   #   H13   0.48976413   0.38410151   0.48827678
   14 1     4      0.00000      0.63333     10.25099     10.02037   #   H14   0.01862189   0.45968321   0.48791500
   15 1     4      0.00000      2.19949      4.87717      2.83629   #   H15   0.06887094   0.22601993   0.13810546
   16 1     4      0.00000      2.18308      5.37562      8.81887   #   H16   0.06863636   0.22755932   0.42941119
   17 1     4      0.00000     14.34925      3.90108      0.75205   #   H17   0.45385203   0.18652925   0.03661907
   18 1     4      0.00000      4.30925      4.40008      9.44744   #   H18   0.13623507   0.17782164   0.46001766
   19 1     4      0.00000      6.70154      4.96084      9.40755   #   H19   0.21190830   0.20519470   0.45807535
   20 1     4      0.00000      6.07558      7.19801      2.11180   #   H20   0.19114920   0.34142831   0.10282822
   21 1     4      0.00000      3.67566      6.67065      2.14945   #   H21   0.11522731   0.31568512   0.10466155
   22 1     2      0.00000     11.83759      3.89139      6.09873   #    C1   0.37462778   0.16580970   0.29696126
   23 1     2      0.00000     10.87946      2.86613      6.40570   #    C2   0.34450210   0.11487578   0.31190849
   24 1     2      0.00000     11.18076      1.57817      6.79049   #    C3   0.35433525   0.05089458   0.33064493
   25 1     2      0.00000      9.96540      0.95403      6.97774   #    C4   0.31597087   0.01988678   0.33976261
   26 1     2      0.00000      8.99703      1.90730      6.69338   #    C5   0.28507916   0.06724018   0.32591615
   27 1     2      0.00000      7.52661      1.73113      6.74690   #    C6   0.23853393   0.05848524   0.32852203
   28 1     2      0.00000      6.68595      2.81165      6.42284   #    C7   0.21165981   0.11216628   0.31274281
   29 1     2      0.00000      5.29284      2.66720      6.46679   #    C8   0.16755678   0.10498745   0.31488315
   30 1     2      0.00000      4.44141      3.77915      6.13322   #    C9   0.14033437   0.16023037   0.29864071
   31 1     2      0.00000      4.72961      1.44062      6.83531   #   C10   0.14998722   0.04404767   0.33282721
   32 1     2      0.00000      5.62189     10.66209      7.15875   #   C11   0.17639587   0.49047761   0.34857599
   33 1     2      0.00000      7.01205     10.80257      7.11598   #   C12   0.22040608   0.49745924   0.34649381
   34 1     2      0.00000      0.26683      0.76731      5.85850   #   C13   0.00867595   0.01506131   0.28526413
   35 1     2      0.00000      0.13273      0.75741      4.45977   #   C14   0.00433890   0.01987799   0.21715646
   36 1     2      0.00000      0.12391      9.85053      3.75696   #   C15   0.00215974   0.46396388   0.18293534
   37 1     2      0.00000      0.18336      8.63449      4.45894   #   C16   0.00433638   0.40227317   0.21711622
   38 1     2      0.00000      0.31736      8.62301      5.85809   #   C17   0.00867468   0.39641652   0.28524395
   39 1     2      0.00000      0.39146      9.84456      6.54917   #   C18   0.01081755   0.45309931   0.31889451
   40 1     1      0.00000     15.55778      8.91744      0.18346   #   C19   0.49107944   0.43220091   0.00893306
   41 1     2      0.00000      0.29785      4.39087      1.94217   #   C20   0.00866620   0.20579884   0.09456888
   42 1     2      0.00000      1.66695      4.70096      1.90980   #   C21   0.05197546   0.22097453   0.09299270
   43 1     2      0.00000      2.36283      4.76300      0.69065   #   C22   0.07393002   0.22860333   0.03362946
   44 1     2      0.00000      1.65543      5.31110      9.76250   #   C23   0.05199390   0.22085352   0.47535895
   45 1     2      0.00000      0.28635      4.99944      9.77442   #   C24   0.00868444   0.20567896   0.47593920
   46 1     2      0.00000     15.40544      4.14091      0.73496   #   C25   0.48726318   0.19823640   0.03578715
   47 1     2      0.00000      3.81121      5.09186      0.66722   #   C26   0.11974781   0.24465689   0.03248857
   48 1     2      0.00000      4.67354      5.19636     10.08439   #   C27   0.14765488   0.21406435   0.49103245
   49 1     2      0.00000      6.03652      5.50721     10.06425   #   C28   0.19077101   0.22923106   0.49005176
   50 1     2      0.00000      6.55455      5.71477      0.62283   #   C29   0.20652962   0.27506384   0.03032716
   51 1     2      0.00000      5.69178      6.41349      1.47206   #   C30   0.17910848   0.30576698   0.07167823
   52 1     2      0.00000      4.32825      6.10527      1.49604   #   C31   0.13597514   0.29071337   0.07284564
   53 1     2      0.00000      0.28815      4.83112      8.29396   #   C32   0.00868005   0.20311487   0.40385219
   54 1     2      0.00000      0.29595      4.55922      3.42285   #   C33   0.00866754   0.20836349   0.16666667
   55 1     2      0.00000      0.30782      7.13398      5.80503   #   C34   0.00867262   0.32433310   0.28266018
   56 1     2      0.00000      0.27628      2.25633      5.91156   #   C35   0.00867494   0.08714448   0.28784771
   57 1     5      0.00000     12.60932      4.71739      5.85142   #    N1   0.39889260   0.20684430   0.28491925
   58 1     5      0.00000      3.75707      4.67302      5.86506   #    N2   0.11845400   0.20463855   0.28558323
   59 1     6      0.00000     15.76980      9.88950      2.33071   #    N3   0.49773736   0.47125742   0.11348749
   60 1     6      0.00000     15.69555      8.83286      1.62681   #    N4   0.49555476   0.42262889   0.07921294
   61 1     3      0.00000      8.26490      6.10313      0.59515   #   Cl1   0.26063418   0.29402166   0.02897928
   62 1     8      0.00000      9.58034      3.03697      6.35537   #    O1   0.30330674   0.12336013   0.30945756
   63 1     7      0.00000      1.40736      4.60850      3.92165   #    O2   0.04390030   0.20886674   0.19095437
   64 1     7      0.00000      1.40079      4.76754      7.79927   #    O3   0.04391073   0.20190186   0.37976474
   65 1     7      0.00000      1.41666      6.62713      5.78944   #    O4   0.04390425   0.29978711   0.28190133
   66 1     7      0.00000      1.39149      2.74891      5.93148   #    O5   0.04390675   0.11098148   0.28881773
   67 1     7      0.00000     14.97490      6.64140      5.78510   #    O6   0.47343980   0.30049607   0.28169007
   68 1     7      0.00000     14.95903      4.78182      7.79493   #    O7   0.47344628   0.20261159   0.37955344
   69 1     7      0.00000     14.96559      4.62278      3.91730   #    O8   0.47343585   0.20957645   0.19074229
   70 1     7      0.00000     14.94972      2.76319      5.92713   #    O9   0.47344230   0.11169119   0.28860570
   71 1     9      0.00000     14.59338      5.50566     16.12399   #   Zn1   0.46225327   0.20620603   0.78511461
   72 1     9      0.00000      1.74139      5.48686     16.12971   #   Zn2   0.05509331   0.20527152   0.78539318
   73 1     4      0.00000     12.14768      1.94488     17.18830   #    H1   0.38556608   0.02931783   0.83693810
   74 1     4      0.00000      9.87090     11.02856     17.55309   #    H2   0.31160628   0.46890183   0.85470079
   75 1     4      0.00000      7.09673      4.56725     16.40457   #    H3   0.22496116   0.15958824   0.79877679
   76 1     4      0.00000      3.63791      2.11938     17.14108   #    H4   0.11592926   0.03796757   0.83463891
   77 1     4      0.00000      5.16802     10.51523     17.71217   #    H5   0.16272935   0.44337986   0.86244674
   78 1     4      0.00000      7.60714     10.74960     17.64081   #    H6   0.23995053   0.45502798   0.85897207
   79 1     4      0.00000      0.07002      2.48966     14.17644   #    H8   0.00262763   0.06717048   0.69028364
   80 1     4      0.00000      0.10950      8.50060     14.18460   #    H9   0.00265301   0.35893964   0.69068125
   81 1     4      0.00000      0.47895     10.64495     17.89571   #   H10   0.01416002   0.44898211   0.87138385
   82 1     4      0.00000     14.59327     11.06372     20.46205   #   H12   0.46139688   0.45959193   0.99634478
   83 1     4      0.00000     15.47892      9.49573     20.29636   #   H13   0.48976413   0.38410151   0.98827678
   84 1     4      0.00000      0.61752     11.05209     20.28893   #   H14   0.01862189   0.45968321   0.98791500
   85 1     4      0.00000      2.18369      5.67828     13.10485   #   H15   0.06887094   0.22601993   0.63810546
   86 1     4      0.00000      2.16728      6.17672     19.08743   #   H16   0.06863636   0.22755932   0.92941119
   87 1     4      0.00000     14.33344      4.70219     11.02061   #   H17   0.45385203   0.18652925   0.53661907
   88 1     4      0.00000      4.29344      5.20119     19.71600   #   H18   0.13623507   0.17782164   0.96001766
   89 1     4      0.00000      6.68573      5.76195     19.67611   #   H19   0.21190830   0.20519470   0.95807535
   90 1     4      0.00000      6.05977      7.99911     12.38035   #   H20   0.19114920   0.34142831   0.60282822
   91 1     4      0.00000      3.65986      7.47175     12.41801   #   H21   0.11522731   0.31568512   0.60466155
   92 1     2      0.00000     11.82178      4.69250     16.36729   #    C1   0.37462778   0.16580970   0.79696126
   93 1     2      0.00000     10.86365      3.66723     16.67426   #    C2   0.34450210   0.11487578   0.81190849
   94 1     2      0.00000     11.16495      2.37927     17.05905   #    C3   0.35433525   0.05089458   0.83064493
   95 1     2      0.00000      9.94959      1.75513     17.24630   #    C4   0.31597087   0.01988678   0.83976261
   96 1     2      0.00000      8.98123      2.70840     16.96194   #    C5   0.28507916   0.06724018   0.82591615
   97 1     2      0.00000      7.51080      2.53223     17.01545   #    C6   0.23853393   0.05848524   0.82852203
   98 1     2      0.00000      6.67014      3.61275     16.69139   #    C7   0.21165981   0.11216628   0.81274281
   99 1     2      0.00000      5.27703      3.46830     16.73535   #    C8   0.16755678   0.10498745   0.81488315
  100 1     2      0.00000      4.42560      4.58026     16.40178   #    C9   0.14033437   0.16023037   0.79864071
  101 1     2      0.00000      4.71380      2.24172     17.10387   #   C10   0.14998722   0.04404767   0.83282721
  102 1     2      0.00000      5.60609     11.46319     17.42730   #   C11   0.17639587   0.49047761   0.84857599
  103 1     2      0.00000      6.99624     11.60367     17.38454   #   C12   0.22040608   0.49745924   0.84649381
  104 1     2      0.00000      0.25102      1.56841     16.12706   #   C13   0.00867595   0.01506131   0.78526413
  105 1     2      0.00000      0.11692      1.55851     14.72833   #   C14   0.00433890   0.01987799   0.71715646
  106 1     2      0.00000      0.10811     10.65163     14.02552   #   C15   0.00215974   0.46396388   0.68293534
  107 1     2      0.00000      0.16755      9.43560     14.72750   #   C16   0.00433638   0.40227317   0.71711622
  108 1     2      0.00000      0.30156      9.42411     16.12665   #   C17   0.00867468   0.39641652   0.78524395
  109 1     2      0.00000      0.37565     10.64566     16.81773   #   C18   0.01081755   0.45309931   0.81889451
  110 1     1      0.00000     15.54197      9.71854     10.45202   #   C19   0.49107944   0.43220091   0.50893306
  111 1     2      0.00000      0.28204      5.19198     12.21073   #   C20   0.00866620   0.20579884   0.59456888
  112 1     2      0.00000      1.65114      5.50206     12.17836   #   C21   0.05197546   0.22097453   0.59299270
  113 1     2      0.00000      2.34702      5.56410     10.95921   #   C22   0.07393002   0.22860333   0.53362946
  114 1     2      0.00000      1.63962      6.11220     20.03106   #   C23   0.05199390   0.22085352   0.97535895
  115 1     2      0.00000      0.27054      5.80054     20.04298   #   C24   0.00868444   0.20567896   0.97593920
  116 1     2      0.00000     15.38963      4.94201     11.00352   #   C25   0.48726318   0.19823640   0.53578715
  117 1     2      0.00000      3.79541      5.89297     10.93578   #   C26   0.11974781   0.24465689   0.53248857
  118 1     2      0.00000      4.65773      5.99746     20.35295   #   C27   0.14765488   0.21406435   0.99103245
  119 1     2      0.00000      6.02072      6.30832     20.33281   #   C28   0.19077101   0.22923106   0.99005176
  120 1     2      0.00000      6.53874      6.51587     10.89139   #   C29   0.20652962   0.27506384   0.53032716
  121 1     2      0.00000      5.67597      7.21460     11.74062   #   C30   0.17910848   0.30576698   0.57167823
  122 1     2      0.00000      4.31245      6.90637     11.76460   #   C31   0.13597514   0.29071337   0.57284564
  123 1     2      0.00000      0.27234      5.63223     18.56252   #   C32   0.00868005   0.20311487   0.90385219
  124 1     2      0.00000      0.28014      5.36032     13.69141   #   C33   0.00866754   0.20836349   0.66666667
  125 1     2      0.00000      0.29201      7.93509     16.07358   #   C34   0.00867262   0.32433310   0.78266018
  126 1     2      0.00000      0.26047      3.05743     16.18012   #   C35   0.00867494   0.08714448   0.78784771
  127 1     5      0.00000     12.59351      5.51849     16.11998   #    N1   0.39889260   0.20684430   0.78491925
  128 1     5      0.00000      3.74126      5.47412     16.13362   #    N2   0.11845400   0.20463855   0.78558323
  129 1     6      0.00000     15.75400     10.69061     12.59926   #    N3   0.49773736   0.47125742   0.61348749
  130 1     6      0.00000     15.67974      9.63397     11.89536   #    N4   0.49555476   0.42262889   0.57921294
  131 1     3      0.00000      8.24909      6.90424     10.86371   #   Cl1   0.26063418   0.29402166   0.52897928
  132 1     8      0.00000      9.56453      3.83808     16.62392   #    O1   0.30330674   0.12336013   0.80945756
  133 1     7      0.00000      1.39155      5.40960     14.19021   #    O2   0.04390030   0.20886674   0.69095437
  134 1     7      0.00000      1.38499      5.56865     18.06783   #    O3   0.04391073   0.20190186   0.87976474
  135 1     7      0.00000      1.40086      7.42824     16.05800   #    O4   0.04390425   0.29978711   0.78190133
  136 1     7      0.00000      1.37568      3.55001     16.20004   #    O5   0.04390675   0.11098148   0.78881773
  137 1     7      0.00000     14.95909      7.44250     16.05366   #    O6   0.47343980   0.30049607   0.78169007
  138 1     7      0.00000     14.94322      5.58293     18.06349   #    O7   0.47344628   0.20261159   0.87955344
  139 1     7      0.00000     14.94978      5.42388     14.18586   #    O8   0.47343585   0.20957645   0.69074229
  140 1     7      0.00000     14.93391      3.56429     16.19569   #    O9   0.47344230   0.11169119   0.78860570
  141 1     9      0.00000     14.67549     15.00431      5.85543   #   Zn1   0.46225327   0.70620603   0.28511461
  142 1     9      0.00000      1.82350     14.98551      5.86115   #   Zn2   0.05509331   0.70527152   0.28539318
  143 1     4      0.00000     12.22979     11.44353      6.91974   #    H1   0.38556608   0.52931783   0.33693810
  144 1     4      0.00000      9.95301     20.52721      7.28453   #    H2   0.31160628   0.96890183   0.35470079
  145 1     4      0.00000      7.17884     14.06590      6.13601   #    H3   0.22496116   0.65958824   0.29877679
  146 1     4      0.00000      3.72003     11.61803      6.87252   #    H4   0.11592926   0.53796757   0.33463891
  147 1     4      0.00000      5.25014     20.01388      7.44361   #    H5   0.16272935   0.94337986   0.36244674
  148 1     4      0.00000      7.68925     20.24825      7.37225   #    H6   0.23995053   0.95502798   0.35897207
  149 1     4      0.00000      0.15214     11.98831      3.90788   #    H8   0.00262763   0.56717048   0.19028364
  150 1     4      0.00000      0.19162     17.99924      3.91604   #    H9   0.00265301   0.85893964   0.19068125
  151 1     4      0.00000      0.56106     20.14360      7.62715   #   H10   0.01416002   0.94898211   0.37138385
  152 1     4      0.00000     14.67538     20.56237     10.19349   #   H12   0.46139688   0.95959193   0.49634478
  153 1     4      0.00000     15.56103     18.99438     10.02780   #   H13   0.48976413   0.88410151   0.48827678
  154 1     4      0.00000      0.69963     20.55074     10.02037   #   H14   0.01862189   0.95968321   0.48791500
  155 1     4      0.00000      2.26580     15.17693      2.83629   #   H15   0.06887094   0.72601993   0.13810546
  156 1     4      0.00000      2.24939     15.67537      8.81887   #   H16   0.06863636   0.72755932   0.42941119
  157 1     4      0.00000     14.41556     14.20084      0.75205   #   H17   0.45385203   0.68652925   0.03661907
  158 1     4      0.00000      4.37555     14.69984      9.44744   #   H18   0.13623507   0.67782164   0.46001766
  159 1     4      0.00000      6.76784     15.26060      9.40755   #   H19   0.21190830   0.70519470   0.45807535
  160 1     4      0.00000      6.14189     17.49776      2.11180   #   H20   0.19114920   0.84142831   0.10282822
  161 1     4      0.00000      3.74197     16.97040      2.14945   #   H21   0.11522731   0.81568512   0.10466155
  162 1     2      0.00000     11.90389     14.19115      6.09873   #    C1   0.37462778   0.66580970   0.29696126
  163 1     2      0.00000     10.94576     13.16588      6.40570   #    C2   0.34450210   0.61487578   0.31190849
  164 1     2      0.00000     11.24706     11.87792      6.79049   #    C3   0.35433525   0.55089458   0.33064493
  165 1     2      0.00000     10.03171     11.25378      6.97774   #    C4   0.31597087   0.51988678   0.33976261
  166 1     2      0.00000      9.06334     12.20705      6.69338   #    C5   0.28507916   0.56724018   0.32591615
  167 1     2      0.00000      7.59291     12.03088      6.74690   #    C6   0.23853393   0.55848524   0.32852203
  168 1     2      0.00000      6.75226     13.11140      6.42284   #    C7   0.21165981   0.61216628   0.31274281
  169 1     2      0.00000      5.35914     12.96695      6.46679   #    C8   0.16755678   0.60498745   0.31488315
  170 1     2      0.00000      4.50772     14.07891      6.13322   #    C9   0.14033437   0.66023037   0.29864071
  171 1     2      0.00000      4.79592     11.74037      6.83531   #   C10   0.14998722   0.54404767   0.33282721
  172 1     2      0.00000      5.68820     20.96184      7.15875   #   C11   0.17639587   0.99047761   0.34857599
  173 1     2      0.00000      7.07836     21.10232      7.11598   #   C12   0.22040608   0.99745924   0.34649381
  174 1     2      0.00000      0.33314     11.06706      5.85850   #   C13   0.00867595   0.51506131   0.28526413
  175 1     2      0.00000      0.19903     11.05716      4.45977   #   C14   0.00433890   0.51987799   0.21715646
  176 1     2      0.00000      0.19022     20.15028      3.75696   #   C15   0.00215974   0.96396388   0.18293534
  177 1     2      0.00000      0.24966     18.93425      4.45894   #   C16   0.00433638   0.90227317   0.21711622
  178 1     2      0.00000      0.38367     18.92276      5.85809   #   C17   0.00867468   0.89641652   0.28524395
  179 1     2      0.00000      0.45776     20.14431      6.54917   #   C18   0.01081755   0.95309931   0.31889451
  180 1     1      0.00000     15.62408     19.21719      0.18346   #   C19   0.49107944   0.93220091   0.00893306
  181 1     2      0.00000      0.36415     14.69063      1.94217   #   C20   0.00866620   0.70579884   0.09456888
  182 1     2      0.00000      1.73326     15.00071      1.90980   #   C21   0.05197546   0.72097453   0.09299270
  183 1     2      0.00000      2.42913     15.06275      0.69065   #   C22   0.07393002   0.72860333   0.03362946
  184 1     2      0.00000      1.72173     15.61085      9.76250   #   C23   0.05199390   0.72085352   0.47535895
  185 1     2      0.00000      0.35266     15.29919      9.77442   #   C24   0.00868444   0.70567896   0.47593920
  186 1     2      0.00000     15.47175     14.44066      0.73496   #   C25   0.48726318   0.69823640   0.03578715
  187 1     2      0.00000      3.87752     15.39162      0.66722   #   C26   0.11974781   0.74465689   0.03248857
  188 1     2      0.00000      4.73984     15.49611     10.08439   #   C27   0.14765488   0.71406435   0.49103245
  189 1     2      0.00000      6.10283     15.80697     10.06425   #   C28   0.19077101   0.72923106   0.49005176
  190 1     2      0.00000      6.62085     16.01452      0.62283   #   C29   0.20652962   0.77506384   0.03032716
  191 1     2      0.00000      5.75808     16.71325      1.47206   #   C30   0.17910848   0.80576698   0.07167823
  192 1     2      0.00000      4.39456     16.40502      1.49604   #   C31   0.13597514   0.79071337   0.07284564
  193 1     2      0.00000      0.35446     15.13088      8.29396   #   C32   0.00868005   0.70311487   0.40385219
  194 1     2      0.00000      0.36226     14.85897      3.42285   #   C33   0.00866754   0.70836349   0.16666667
  195 1     2      0.00000      0.37413     17.43374      5.80503   #   C34   0.00867262   0.82433310   0.28266018
  196 1     2      0.00000      0.34258     12.55608      5.91156   #   C35   0.00867494   0.58714448   0.28784771
  197 1     5      0.00000     12.67563     15.01714      5.85142   #    N1   0.39889260   0.70684430   0.28491925
  198 1     5      0.00000      3.82337     14.97277      5.86506   #    N2   0.11845400   0.70463855   0.28558323
  199 1     6      0.00000     15.83611     20.18926      2.33071   #    N3   0.49773736   0.97125742   0.11348749
  200 1     6      0.00000     15.76185     19.13262      1.62681   #    N4   0.49555476   0.92262889   0.07921294
  201 1     3      0.00000      8.33120     16.40289      0.59515   #   Cl1   0.26063418   0.79402166   0.02897928
  202 1     8      0.00000      9.64665     13.33673      6.35537   #    O1   0.30330674   0.62336013   0.30945756
  203 1     7      0.00000      1.47366     14.90825      3.92165   #    O2   0.04390030   0.70886674   0.19095437
  204 1     7      0.00000      1.46710     15.06729      7.79927   #    O3   0.04391073   0.70190186   0.37976474
  205 1     7      0.00000      1.48297     16.92689      5.78944   #    O4   0.04390425   0.79978711   0.28190133
  206 1     7      0.00000      1.45779     13.04866      5.93148   #    O5   0.04390675   0.61098148   0.28881773
  207 1     7      0.00000     15.04120     16.94115      5.78510   #    O6   0.47343980   0.80049607   0.28169007
  208 1     7      0.00000     15.02533     15.08158      7.79493   #    O7   0.47344628   0.70261159   0.37955344
  209 1     7      0.00000     15.03190     14.92253      3.91730   #    O8   0.47343585   0.70957645   0.19074229
  210 1     7      0.00000     15.01603     13.06294      5.92713   #    O9   0.47344230   0.61169119   0.28860570
  211 1     9      0.00000     14.65969     15.80541     16.12399   #   Zn1   0.46225327   0.70620603   0.78511461
  212 1     9      0.00000      1.80770     15.78661     16.12971   #   Zn2   0.05509331   0.70527152   0.78539318
  213 1     4      0.00000     12.21399     12.24464     17.18830   #    H1   0.38556608   0.52931783   0.83693810
  214 1     4      0.00000      9.93720     21.32831     17.55309   #    H2   0.31160628   0.96890183   0.85470079
  215 1     4      0.00000      7.16303     14.86700     16.40457   #    H3   0.22496116   0.65958824   0.79877679
  216 1     4      0.00000      3.70422     12.41913     17.14108   #    H4   0.11592926   0.53796757   0.83463891
  217 1     4      0.00000      5.23433     20.81498     17.71217   #    H5   0.16272935   0.94337986   0.86244674
  218 1     4      0.00000      7.67344     21.04936     17.64081   #    H6   0.23995053   0.95502798   0.85897207
  219 1     4      0.00000      0.13633     12.78941     14.17644   #    H8   0.00262763   0.56717048   0.69028364
  220 1     4      0.00000      0.17581     18.80035     14.18460   #    H9   0.00265301   0.85893964   0.69068125
  221 1     4      0.00000      0.54525     20.94470     17.89571   #   H10   0.01416002   0.94898211   0.87138385