Created by Ryther's code on 2025-08-05 18:36:39.737912, modified by xyan11@uic.edu. 

    584 atoms
    680 bonds
    1248 angles
    1376 dihedrals
    256 impropers

    9 atom types
    15 bond types
    31 angle types
    8 dihedral types
    2 improper types

0.00000000 31.56463518 xlo xhi
0.00000000 20.60122536 ylo yhi
0.00000000 20.53541732 zlo zhi
0.13446296 -0.03807702 1.60761262 xy xz yz 

Masses 

    1    12.0107  #   C
    2    12.0107  #   C
    3    1.00794  #   H
    4    14.0067  #   N
    5    15.9994  #   O
    6    15.9994  #   O
    7    15.9994  #   O
    8    15.9994  #   O
    9      65.38  #  Zn

Pair Coeffs

    1       0.10500      3.43085  #  C_3 C_3
    2       0.10500      3.43085  #  C_R C_R
    3       0.04400      2.57113  #  H_ H_
    4       0.06900      3.26069  #  N_2 N_2
    5       0.06000      3.11815  #  O_2_M O_2_M
    6       0.06000      3.11815  #  O_3 O_3
    7       0.06000      3.11815  #  O_3_M O_3_M
    8       0.06000      3.11815  #  O_R O_R
    9       0.06000      2.58361  #  Zn6f3 Zn6f3

Bond Coeffs

    1      55.07699      2.48452  #  N_2 Zn6f3 bond order=0.5
    2      54.94924      2.40433  #  O_2_M Zn6f3 bond order=0.5
    3      24.34887      2.13340  #  H_ Zn6f3 bond order=0.5
    4      53.24274      2.42975  #  O_3_M Zn6f3 bond order=0.5
    5     357.44038      1.08142  #  C_R H_ bond order=1.0
    6     331.06939      1.10940  #  C_3 H_ bond order=1.0
    7     559.99521      0.99025  #  H_ O_3_M bond order=1.0
    8     931.53598      1.20133  #  C_R N_2 bond order=3.0
    9     462.65505      1.37926  #  C_R C_R bond order=1.5
    10    646.62465      1.31194  #  C_R O_R bond order=1.5
    11    391.66951      1.45800  #  C_R C_R bond order=1.0
    12    369.94394      1.48600  #  C_3 C_R bond order=1.0
    13    539.20166      1.39385  #  C_3 O_3 bond order=1.0
    14    714.55744      1.26901  #  C_R O_2_M bond order=1.5
    15    678.02790      1.29140  #  C_R O_3_M bond order=1.5

Angle Coeffs

    1  cosine/periodic         70.47472            1            4  #  N_2 Zn6f3 O_2_M
    2  cosine/periodic         25.39208            1            4  #  H_ Zn6f3 N_2
    3  cosine/periodic         67.02484            1            4  #  O_2_M Zn6f3 O_2_M
    4  cosine/periodic         24.38538            1            4  #  H_ Zn6f3 O_2_M
    5  cosine/periodic         65.96675            1            4  #  O_2_M Zn6f3 O_3_M
    6  cosine/periodic         69.42201            1            4  #  N_2 Zn6f3 O_3_M
    7  cosine/periodic         23.92551            1            4  #  H_ Zn6f3 O_3_M
    8  cosine/periodic          4.27473            1            1  #  Zn6f3 H_ Zn6f3
    9  cosine/periodic        164.23630            1            1  #  C_R H_ O_3_M
    10 cosine/periodic        179.74893           -1            3  #  C_R C_R N_2
    11 cosine/periodic        144.05325           -1            3  #  C_R C_R O_R
    12 cosine/periodic        111.29751           -1            3  #  C_R C_R C_R
    13 cosine/periodic         57.28902           -1            3  #  C_R C_R H_
    14 cosine/periodic        102.18328           -1            3  #  C_R C_R C_R
    15 cosine/periodic        131.74425           -1            3  #  C_R C_R O_R
    16 cosine/periodic         99.13715           -1            3  #  C_3 C_R C_R
    17 fourier                121.77380      0.34375      0.37500      0.28125  #  C_R C_3 H_
    18 fourier                 75.49653      0.34375      0.37500      0.28125  #  H_ C_3 H_
    19 fourier                165.75867      0.34375      0.37500      0.28125  #  H_ C_3 O_3
    20 fourier                298.92298      0.34375      0.37500      0.28125  #  C_R C_3 O_3
    21 cosine/periodic        137.71425           -1            3  #  C_R C_R O_2_M
    22 cosine/periodic        206.77843           -1            3  #  O_2_M C_R O_2_M
    23 cosine/periodic        134.57449           -1            3  #  C_R C_R O_3_M
    24 cosine/periodic        201.38050           -1            3  #  O_2_M C_R O_3_M
    25 fourier                 48.02888      0.36401      0.41847      0.28800  #  C_R N_2 Zn6f3
    26 fourier                322.57640      0.35263      0.39441      0.28421  #  C_R O_R C_R
    27 fourier                311.60110      0.30023      0.26733      0.26675  #  C_3 O_3 C_3
    28 fourier                 22.33312      0.30023      0.26733      0.26675  #  H_ O_3_M Zn6f3
    29 fourier                 55.81766      0.30023      0.26733      0.26675  #  C_R O_3_M Zn6f3
    30 fourier                203.65891      0.30023      0.26733      0.26675  #  C_R O_3_M H_
    31 cosine/periodic         21.77718           -1            3  #  C_R O_2_M Zn6f3

Dihedral Coeffs

    1      27.96100           -1            2  #  X C_R N_2 X bond order=3.0
    2       6.73711           -1            2  #  X C_R C_R X bond order=1.5
    3       6.73711           -1            2  #  X C_R O_R X bond order=1.5
    4       1.25000           -1            2  #  X C_R C_R X bond order=1.0
    5       0.16667           -1            6  #  X C_3 C_R X bond order=1.0
    6       0.03255            1            3  #  X C_3 O_3 X bond order=1.0
    7       6.73711           -1            2  #  X C_R O_2_M X bond order=1.5
    8       0.31957           -1            2  #  X C_R O_3_M X bond order=1.5

Improper Coeffs

    1       2.00000      1.00000     -1.00000      0.00000            1  #  C_R X X X O_2 present=False
    2      16.66667      1.00000     -1.00000      0.00000            1  #  C_R X X X O_2 present=True

Atoms # a, b, c, alpha, beta, gamma: 31.5646351755, 20.6016641663, 20.5982822739, 85.5245329378, 90.1059143667, 89.6260391879 $$$atoms$$$

    1 1     9      0.00000     14.60180      4.70486      5.84986   #   Zn1   0.46206542   0.20614799   0.28486680
    2 1     9      0.00000      1.74981      4.68605      5.85559   #   Zn2   0.05490556   0.20521354   0.28514566
    3 1     3      0.00000     12.15610      1.14439      6.91519   #    H1   0.38539923   0.02927164   0.33674470
    4 1     3      0.00000      9.88024     10.22902      7.28034   #    H2   0.31144661   0.46885969   0.35452598
    5 1     3      0.00000      7.10515      3.76652      6.13071   #    H3   0.22477884   0.15953332   0.29854332
    6 1     3      0.00000      3.64633      1.31887      6.86792   #    H4   0.11576142   0.03792080   0.33444286
    7 1     3      0.00000      5.17737      9.71574      7.43957   #    H5   0.16257277   0.44333943   0.36227979
    8 1     3      0.00000      7.61648      9.95010      7.36814   #    H6   0.23979256   0.45498677   0.35880154
    9 1     3      0.00000      0.43822      4.14232      6.36902   #    H7   0.01350380   0.17686910   0.31014788
   10 1     3      0.00000     15.54604      1.69593      3.96589   #    H8   0.49246081   0.06725137   0.19312420
   11 1     3      0.00000     15.58364      7.70685      3.95994   #    H9   0.49240877   0.35904880   0.19283468
   12 1     3      0.00000      0.78302      9.84021      7.56821   #   H10   0.02333907   0.44889231   0.36854407
   13 1     3      0.00000     14.49619      0.46264      2.13754   #   H12   0.45931857   0.01433405   0.10409065
   14 1     3      0.00000     14.55219      8.95948      2.13449   #   H13   0.45933554   0.42678919   0.10394180
   15 1     3      0.00000      1.18208     10.65437      9.91291   #   H14   0.03598918   0.47950258   0.48272272
   16 1     3      0.00000     15.39092      1.27710     10.21758   #   H15   0.48810176   0.02316455   0.49755878
   17 1     3      0.00000     15.44646      9.74928     10.21427   #   H16   0.48810908   0.43442352   0.49739788
   18 1     3      0.00000      2.22779      4.63136      2.85362   #   H17   0.06983475   0.21396624   0.13896111
   19 1     3      0.00000      2.21979      5.13240      8.83513   #   H18   0.06992590   0.21555745   0.43023888
   20 1     3      0.00000     14.30779      4.12348      0.72637   #   H19   0.45248723   0.19739677   0.03537170
   21 1     3      0.00000      4.19824      3.89599      9.48663   #   H21   0.13290962   0.15306520   0.46196428
   22 1     3      0.00000      6.64681      4.15147      9.47797   #   H22   0.21042947   0.16549918   0.46154268
   23 1     3      0.00000      7.75603      5.01128      0.68786   #   H23   0.24473421   0.24063751   0.03349630
   24 1     3      0.00000      6.38085      6.43775      2.17563   #   H24   0.20098354   0.30422606   0.10594508
   25 1     3      0.00000      3.92849      6.22180      2.18719   #   H25   0.12333579   0.29370002   0.10650837
   26 1     2      0.00000     11.83020      3.89176      6.09339   #    C1   0.37444472   0.16575436   0.29672587
   27 1     2      0.00000     10.87207      2.86659      6.40066   #    C2   0.34432509   0.11482386   0.31168878
   28 1     2      0.00000     11.17337      1.57874      6.78582   #    C3   0.35416584   0.05084695   0.33044489
   29 1     2      0.00000      9.95801      0.95465      6.97326   #    C4   0.31580515   0.01984122   0.33957211
   30 1     2      0.00000      8.98964      1.90784      6.68861   #    C5   0.28490782   0.06719145   0.32571109
   31 1     2      0.00000      7.51922      1.73169      6.74218   #    C6   0.23836364   0.05843710   0.32831966
   32 1     2      0.00000      6.67856      2.81211      6.41781   #    C7   0.21148314   0.11211455   0.31252393
   33 1     2      0.00000      5.28545      2.66768      6.46181   #    C8   0.16738096   0.10493619   0.31466648
   34 1     2      0.00000      4.43402      3.77953      6.12791   #    C9   0.14015198   0.16017541   0.29840704
   35 1     2      0.00000      4.72222      1.44120      6.83068   #   C10   0.14981866   0.04400050   0.33262929
   36 1     2      0.00000      5.61543     10.66363      7.15443   #   C11   0.17623368   0.49043403   0.34839455
   37 1     2      0.00000      7.00559     10.80409      7.11162   #   C12   0.22024305   0.49741518   0.34631022
   38 1     2      0.00000      0.25944      0.76761      5.85407   #   C13   0.00849936   0.01501489   0.28507175
   39 1     2      0.00000     15.67215      0.76135      4.49926   #   C14   0.49668955   0.01985917   0.21909734
   40 1     2      0.00000     15.52979      9.85253      3.82105   #   C15   0.49024853   0.46372974   0.18607118
   41 1     2      0.00000     15.72261      8.63838      4.49573   #   C16   0.49665892   0.40223006   0.21892567
   42 1     2      0.00000      0.30998      8.62331      5.85138   #   C17   0.00847569   0.39634691   0.28494103
   43 1     2      0.00000      0.49789      9.84324      6.52336   #   C18   0.01422724   0.45300989   0.31766364
   44 1     1      0.00000     15.17275      9.85715      2.36169   #   C19   0.47882686   0.46949951   0.11500575
   45 1     1      0.00000      0.25793      9.85554      0.22908   #   C20   0.00615070   0.47752547   0.01115543
   46 1     2      0.00000      0.29046      4.39004      1.93669   #   C21   0.00843936   0.20573680   0.09430972
   47 1     2      0.00000      1.68818      4.52370      1.92075   #   C22   0.05269166   0.21228495   0.09353366
   48 1     2      0.00000      2.40066      4.49613      0.70998   #   C23   0.07517892   0.21554769   0.03457347
   49 1     2      0.00000      1.67752      5.13611      9.77283   #   C24   0.05281573   0.21217391   0.47590122
   50 1     2      0.00000      0.27896      5.00087      9.76876   #   C25   0.00853569   0.20562500   0.47570306
   51 1     2      0.00000     15.38587      4.22711      0.72143   #   C26   0.48662015   0.20244570   0.03513106
   52 1     2      0.00000      3.87929      4.63837      0.70385   #   C27   0.12199340   0.22247580   0.03427486
   53 1     2      0.00000      4.65292      4.63957     10.12913   #   C28   0.14720898   0.18671748   0.49325167
   54 1     2      0.00000      6.04458      4.77531     10.12580   #   C29   0.19126976   0.19331936   0.49308952
   55 1     2      0.00000      6.67866      4.90765      0.69230   #   C30   0.21062396   0.23559035   0.03371261
   56 1     2      0.00000      5.90329      5.71004      1.53225   #   C31   0.18595653   0.27134746   0.07461512
   57 1     2      0.00000      4.51130      5.57803      1.54040   #   C32   0.14188463   0.26490848   0.07501208
   58 1     2      0.00000      0.28076      4.83213      8.28835   #   C33   0.00851668   0.20305952   0.40361243
   59 1     2      0.00000      0.28856      4.55880      3.41710   #   C34   0.00845531   0.20830282   0.16640010
   60 1     2      0.00000      0.30043      7.13427      5.79875   #   C35   0.00847732   0.32426782   0.28237797
   61 1     2      0.00000      0.26889      2.25664      5.90670   #   C36   0.00849464   0.08709374   0.28763459
   62 1     4      0.00000     12.60193      4.71769      5.84584   #    N1   0.39870466   0.20678622   0.28467124
   63 1     4      0.00000      3.74968      4.67332      5.85949   #    N2   0.11826633   0.20458062   0.28533590
   64 1     8      0.00000      9.57295      3.03742      6.35027   #    O1   0.30312873   0.12330764   0.30923523
   65 1     6      0.00000      0.57963      9.85101      1.60169   #    O2   0.01644632   0.47208960   0.07799661
   66 1     7      0.00000      1.39997      4.60824      3.91611   #    O3   0.04369301   0.20880655   0.19070011
   67 1     5      0.00000      1.39341      4.76840      7.79368   #    O4   0.04374250   0.20184608   0.37952387
   68 1     5      0.00000      1.40928      6.62741      5.78331   #    O5   0.04371024   0.29972332   0.28162619
   69 1     5      0.00000      1.38410      2.74923      5.92648   #    O6   0.04372524   0.11092931   0.28859775
   70 1     5      0.00000     14.96751      6.64168      5.77897   #    O7   0.47324570   0.30043222   0.28141471
   71 1     5      0.00000     14.95164      4.78268      7.78934   #    O8   0.47327797   0.20255576   0.37931236
   72 1     5      0.00000     14.95820      4.62252      3.91175   #    O9   0.47322847   0.20951621   0.19048782
   73 1     5      0.00000     14.94233      2.76351      5.92212   #   O10   0.47326071   0.11163897   0.28838550
   74 1     9      0.00000     14.58276      5.50866     16.11757   #   Zn1   0.46206542   0.20614799   0.78486680
   75 1     9      0.00000      1.73077      5.48986     16.12329   #   Zn2   0.05490556   0.20521354   0.78514566
   76 1     3      0.00000     12.13706      1.94819     17.18290   #    H1   0.38539923   0.02927164   0.83674470
   77 1     3      0.00000      9.86121     11.03283     17.54805   #    H2   0.31144661   0.46885969   0.85452598
   78 1     3      0.00000      7.08611      4.57033     16.39842   #    H3   0.22477884   0.15953332   0.79854332
   79 1     3      0.00000      3.62729      2.12268     17.13563   #    H4   0.11576142   0.03792080   0.83444286
   80 1     3      0.00000      5.15833     10.51955     17.70728   #    H5   0.16257277   0.44333943   0.86227979
   81 1     3      0.00000      7.59744     10.75391     17.63585   #    H6   0.23979256   0.45498677   0.85880154
   82 1     3      0.00000      0.41918      4.94612     16.63672   #    H7   0.01350380   0.17686910   0.81014788
   83 1     3      0.00000     15.52700      2.49974     14.23359   #    H8   0.49246081   0.06725137   0.69312420
   84 1     3      0.00000     15.56460      8.51066     14.22765   #    H9   0.49240877   0.35904880   0.69283468
   85 1     3      0.00000      0.76398     10.64401     17.83591   #   H10   0.02333907   0.44889231   0.86854407
   86 1     3      0.00000     14.47715      1.26644     12.40525   #   H12   0.45931857   0.01433405   0.60409065
   87 1     3      0.00000     14.53315      9.76328     12.40220   #   H13   0.45933554   0.42678919   0.60394180
   88 1     3      0.00000      1.16304     11.45818     20.18062   #   H14   0.03598918   0.47950258   0.98272272
   89 1     3      0.00000     15.37188      2.08091     20.48529   #   H15   0.48810176   0.02316455   0.99755878
   90 1     3      0.00000     15.42742     10.55309     20.48198   #   H16   0.48810908   0.43442352   0.99739788
   91 1     3      0.00000      2.20875      5.43517     13.12133   #   H17   0.06983475   0.21396624   0.63896111
   92 1     3      0.00000      2.20075      5.93621     19.10284   #   H18   0.06992590   0.21555745   0.93023888
   93 1     3      0.00000     14.28875      4.92729     10.99408   #   H19   0.45248723   0.19739677   0.53537170
   94 1     3      0.00000      4.17920      4.69980     19.75434   #   H21   0.13290962   0.15306520   0.96196428
   95 1     3      0.00000      6.62777      4.95527     19.74568   #   H22   0.21042947   0.16549918   0.96154268
   96 1     3      0.00000      7.73699      5.81508     10.95557   #   H23   0.24473421   0.24063751   0.53349630
   97 1     3      0.00000      6.36181      7.24155     12.44334   #   H24   0.20098354   0.30422606   0.60594508
   98 1     3      0.00000      3.90945      7.02561     12.45490   #   H25   0.12333579   0.29370002   0.60650837
   99 1     2      0.00000     11.81116      4.69557     16.36110   #    C1   0.37444472   0.16575436   0.79672587
  100 1     2      0.00000     10.85303      3.67039     16.66837   #    C2   0.34432509   0.11482386   0.81168878
  101 1     2      0.00000     11.15433      2.38254     17.05353   #    C3   0.35416584   0.05084695   0.83044489
  102 1     2      0.00000      9.93897      1.75846     17.24096   #    C4   0.31580515   0.01984122   0.83957211
  103 1     2      0.00000      8.97061      2.71165     16.95632   #    C5   0.28490782   0.06719145   0.82571109
  104 1     2      0.00000      7.50018      2.53549     17.00989   #    C6   0.23836364   0.05843710   0.82831966
  105 1     2      0.00000      6.65952      3.61592     16.68552   #    C7   0.21148314   0.11211455   0.81252393
  106 1     2      0.00000      5.26641      3.47148     16.72952   #    C8   0.16738096   0.10493619   0.81466648
  107 1     2      0.00000      4.41498      4.58334     16.39562   #    C9   0.14015198   0.16017541   0.79840704
  108 1     2      0.00000      4.70318      2.24501     17.09839   #   C10   0.14981866   0.04400050   0.83262929
  109 1     2      0.00000      5.59639     11.46743     17.42214   #   C11   0.17623368   0.49043403   0.84839455
  110 1     2      0.00000      6.98655     11.60790     17.37933   #   C12   0.22024305   0.49741518   0.84631022
  111 1     2      0.00000      0.24040      1.57142     16.12178   #   C13   0.00849936   0.01501489   0.78507175
  112 1     2      0.00000     15.65311      1.56515     14.76696   #   C14   0.49668955   0.01985917   0.71909734
  113 1     2      0.00000     15.51075     10.65634     14.08876   #   C15   0.49024853   0.46372974   0.68607118
  114 1     2      0.00000     15.70357      9.44219     14.76344   #   C16   0.49665892   0.40223006   0.71892567
  115 1     2      0.00000      0.29094      9.42711     16.11909   #   C17   0.00847569   0.39634691   0.78494103
  116 1     2      0.00000      0.47886     10.64705     16.79106   #   C18   0.01422724   0.45300989   0.81766364
  117 1     1      0.00000     15.15371     10.66096     12.62940   #   C19   0.47882686   0.46949951   0.61500575
  118 1     1      0.00000      0.23889     10.65935     10.49679   #   C20   0.00615070   0.47752547   0.51115543
  119 1     2      0.00000      0.27142      5.19385     12.20440   #   C21   0.00843936   0.20573680   0.59430972
  120 1     2      0.00000      1.66914      5.32750     12.18846   #   C22   0.05269166   0.21228495   0.59353366
  121 1     2      0.00000      2.38162      5.29993     10.97769   #   C23   0.07517892   0.21554769   0.53457347
  122 1     2      0.00000      1.65848      5.93991     20.04054   #   C24   0.05281573   0.21217391   0.97590122
  123 1     2      0.00000      0.25992      5.80468     20.03647   #   C25   0.00853569   0.20562500   0.97570306
  124 1     2      0.00000     15.36683      5.03091     10.98914   #   C26   0.48662015   0.20244570   0.53513106
  125 1     2      0.00000      3.86025      5.44218     10.97156   #   C27   0.12199340   0.22247580   0.53427486
  126 1     2      0.00000      4.63388      5.44337     20.39684   #   C28   0.14720898   0.18671748   0.99325167
  127 1     2      0.00000      6.02554      5.57912     20.39351   #   C29   0.19126976   0.19331936   0.99308952
  128 1     2      0.00000      6.65962      5.71145     10.96001   #   C30   0.21062396   0.23559035   0.53371261
  129 1     2      0.00000      5.88426      6.51385     11.79996   #   C31   0.18595653   0.27134746   0.57461512
  130 1     2      0.00000      4.49226      6.38184     11.80811   #   C32   0.14188463   0.26490848   0.57501208
  131 1     2      0.00000      0.26172      5.63593     18.55606   #   C33   0.00851668   0.20305952   0.90361243
  132 1     2      0.00000      0.26952      5.36261     13.68480   #   C34   0.00845531   0.20830282   0.66640010
  133 1     2      0.00000      0.28139      7.93808     16.06646   #   C35   0.00847732   0.32426782   0.78237797
  134 1     2      0.00000      0.24985      3.06045     16.17440   #   C36   0.00849464   0.08709374   0.78763459
  135 1     4      0.00000     12.58289      5.52150     16.11355   #    N1   0.39870466   0.20678622   0.78467124
  136 1     4      0.00000      3.73064      5.47713     16.12720   #    N2   0.11826633   0.20458062   0.78533590
  137 1     8      0.00000      9.55391      3.84123     16.61798   #    O1   0.30312873   0.12330764   0.80923523
  138 1     6      0.00000      0.56059     10.65482     11.86940   #    O2   0.01644632   0.47208960   0.57799661
  139 1     7      0.00000      1.38093      5.41205     14.18382   #    O3   0.04369301   0.20880655   0.69070011
  140 1     5      0.00000      1.37437      5.57221     18.06139   #    O4   0.04374250   0.20184608   0.87952387
  141 1     5      0.00000      1.39024      7.43122     16.05102   #    O5   0.04371024   0.29972332   0.78162619
  142 1     5      0.00000      1.36506      3.55304     16.19418   #    O6   0.04372524   0.11092931   0.78859775
  143 1     5      0.00000     14.94847      7.44548     16.04668   #    O7   0.47324570   0.30043222   0.78141471
  144 1     5      0.00000     14.93260      5.58649     18.05705   #    O8   0.47327797   0.20255576   0.87931236
  145 1     5      0.00000     14.93916      5.42633     14.17946   #    O9   0.47322847   0.20951621   0.69048782
  146 1     5      0.00000     14.92329      3.56732     16.18983   #   O10   0.47326071   0.11163897   0.78838550
  147 1     9      0.00000     14.66903     15.00547      5.84986   #   Zn1   0.46206542   0.70614799   0.28486680
  148 1     9      0.00000      1.81704     14.98667      5.85559   #   Zn2   0.05490556   0.70521354   0.28514566
  149 1     3      0.00000     12.22333     11.44500      6.91519   #    H1   0.38539923   0.52927164   0.33674470
  150 1     3      0.00000      9.94748     20.52964      7.28034   #    H2   0.31144661   0.96885969   0.35452598
  151 1     3      0.00000      7.17238     14.06714      6.13071   #    H3   0.22477884   0.65953332   0.29854332
  152 1     3      0.00000      3.71356     11.61948      6.86792   #    H4   0.11576142   0.53792080   0.33444286
  153 1     3      0.00000      5.24460     20.01635      7.43957   #    H5   0.16257277   0.94333943   0.36227979
  154 1     3      0.00000      7.68371     20.25071      7.36814   #    H6   0.23979256   0.95498677   0.35880154
  155 1     3      0.00000      0.50545     14.44293      6.36902   #    H7   0.01350380   0.67686910   0.31014788
  156 1     3      0.00000     15.61327     11.99654      3.96589   #    H8   0.49246081   0.56725137   0.19312420
  157 1     3      0.00000     15.65087     18.00746      3.95994   #    H9   0.49240877   0.85904880   0.19283468
  158 1     3      0.00000      0.85025     20.14082      7.56821   #   H10   0.02333907   0.94889231   0.36854407
  159 1     3      0.00000     14.56342     10.76325      2.13754   #   H12   0.45931857   0.51433405   0.10409065
  160 1     3      0.00000     14.61942     19.26009      2.13449   #   H13   0.45933554   0.92678919   0.10394180
  161 1     3      0.00000      1.24931     20.95498      9.91291   #   H14   0.03598918   0.97950258   0.48272272
  162 1     3      0.00000     15.45815     11.57771     10.21758   #   H15   0.48810176   0.52316455   0.49755878
  163 1     3      0.00000     15.51369     20.04989     10.21427   #   H16   0.48810908   0.93442352   0.49739788
  164 1     3      0.00000      2.29502     14.93198      2.85362   #   H17   0.06983475   0.71396624   0.13896111
  165 1     3      0.00000      2.28702     15.43302      8.83513   #   H18   0.06992590   0.71555745   0.43023888
  166 1     3      0.00000     14.37502     14.42409      0.72637   #   H19   0.45248723   0.69739677   0.03537170
  167 1     3      0.00000      4.26547     14.19660      9.48663   #   H21   0.13290962   0.65306520   0.46196428
  168 1     3      0.00000      6.71404     14.45208      9.47797   #   H22   0.21042947   0.66549918   0.46154268
  169 1     3      0.00000      7.82326     15.31189      0.68786   #   H23   0.24473421   0.74063751   0.03349630
  170 1     3      0.00000      6.44808     16.73836      2.17563   #   H24   0.20098354   0.80422606   0.10594508
  171 1     3      0.00000      3.99572     16.52242      2.18719   #   H25   0.12333579   0.79370002   0.10650837
  172 1     2      0.00000     11.89743     14.19238      6.09339   #    C1   0.37444472   0.66575436   0.29672587
  173 1     2      0.00000     10.93930     13.16720      6.40066   #    C2   0.34432509   0.61482386   0.31168878
  174 1     2      0.00000     11.24060     11.87935      6.78582   #    C3   0.35416584   0.55084695   0.33044489
  175 1     2      0.00000     10.02524     11.25527      6.97326   #    C4   0.31580515   0.51984122   0.33957211
  176 1     2      0.00000      9.05688     12.20846      6.68861   #    C5   0.28490782   0.56719145   0.32571109
  177 1     2      0.00000      7.58645     12.03230      6.74218   #    C6   0.23836364   0.55843710   0.32831966
  178 1     2      0.00000      6.74579     13.11273      6.41781   #    C7   0.21148314   0.61211455   0.31252393
  179 1     2      0.00000      5.35268     12.96829      6.46181   #    C8   0.16738096   0.60493619   0.31466648
  180 1     2      0.00000      4.50125     14.08015      6.12791   #    C9   0.14015198   0.66017541   0.29840704
  181 1     2      0.00000      4.78945     11.74182      6.83068   #   C10   0.14981866   0.54400050   0.33262929
  182 1     2      0.00000      5.68266     20.96424      7.15443   #   C11   0.17623368   0.99043403   0.34839455
  183 1     2      0.00000      7.07282     21.10471      7.11162   #   C12   0.22024305   0.99741518   0.34631022
  184 1     2      0.00000      0.32667     11.06822      5.85407   #   C13   0.00849936   0.51501489   0.28507175
  185 1     2      0.00000     15.73938     11.06196      4.49926   #   C14   0.49668955   0.51985917   0.21909734
  186 1     2      0.00000     15.59702     20.15314      3.82105   #   C15   0.49024853   0.96372974   0.18607118
  187 1     2      0.00000     15.78984     18.93899      4.49573   #   C16   0.49665892   0.90223006   0.21892567
  188 1     2      0.00000      0.37721     18.92392      5.85138   #   C17   0.00847569   0.89634691   0.28494103
  189 1     2      0.00000      0.56513     20.14385      6.52336   #   C18   0.01422724   0.95300989   0.31766364
  190 1     1      0.00000     15.23998     20.15776      2.36169   #   C19   0.47882686   0.96949951   0.11500575
  191 1     1      0.00000      0.32516     20.15616      0.22908   #   C20   0.00615070   0.97752547   0.01115543
  192 1     2      0.00000      0.35769     14.69066      1.93669   #   C21   0.00843936   0.70573680   0.09430972
  193 1     2      0.00000      1.75541     14.82431      1.92075   #   C22   0.05269166   0.71228495   0.09353366
  194 1     2      0.00000      2.46789     14.79674      0.70998   #   C23   0.07517892   0.71554769   0.03457347
  195 1     2      0.00000      1.74475     15.43672      9.77283   #   C24   0.05281573   0.71217391   0.47590122
  196 1     2      0.00000      0.34619     15.30149      9.76876   #   C25   0.00853569   0.70562500   0.47570306
  197 1     2      0.00000     15.45310     14.52772      0.72143   #   C26   0.48662015   0.70244570   0.03513106
  198 1     2      0.00000      3.94652     14.93899      0.70385   #   C27   0.12199340   0.72247580   0.03427486
  199 1     2      0.00000      4.72015     14.94018     10.12913   #   C28   0.14720898   0.68671748   0.49325167
  200 1     2      0.00000      6.11181     15.07593     10.12580   #   C29   0.19126976   0.69331936   0.49308952
  201 1     2      0.00000      6.74589     15.20826      0.69230   #   C30   0.21062396   0.73559035   0.03371261
  202 1     2      0.00000      5.97053     16.01066      1.53225   #   C31   0.18595653   0.77134746   0.07461512
  203 1     2      0.00000      4.57853     15.87864      1.54040   #   C32   0.14188463   0.76490848   0.07501208
  204 1     2      0.00000      0.34799     15.13274      8.28835   #   C33   0.00851668   0.70305952   0.40361243
  205 1     2      0.00000      0.35579     14.85941      3.41710   #   C34   0.00845531   0.70830282   0.16640010
  206 1     2      0.00000      0.36766     17.43488      5.79875   #   C35   0.00847732   0.82426782   0.28237797
  207 1     2      0.00000      0.33612     12.55726      5.90670   #   C36   0.00849464   0.58709374   0.28763459
  208 1     4      0.00000     12.66916     15.01830      5.84584   #    N1   0.39870466   0.70678622   0.28467124
  209 1     4      0.00000      3.81691     14.97393      5.85949   #    N2   0.11826633   0.70458062   0.28533590
  210 1     8      0.00000      9.64018     13.33803      6.35027   #    O1   0.30312873   0.62330764   0.30923523
  211 1     6      0.00000      0.64686     20.15163      1.60169   #    O2   0.01644632   0.97208960   0.07799661