ITEM: TIMESTEP
0
ITEM: NUMBER OF ATOMS
584
ITEM: BOX BOUNDS xy xz yz pp pp pp
-3.8077020000000003e-02 3.1699098140000000e+01 1.3446295999999999e-01
0.0000000000000000e+00 2.2208837980000002e+01 -3.8077020000000003e-02
0.0000000000000000e+00 2.0535417320000001e+01 1.6076126200000000e+00
ITEM: ATOMS id type element x y z q
2 9 Zn 1.23897 3.6854 6.20049 0
5 3 H 5.96478 4.81852 5.25972 0
6 3 H 3.94285 2.47761 2.25236 0
9 3 H 0.119067 3.36445 6.41374 0
18 3 H 0.954556 5.23483 3.6161 0
19 3 H 3.33068 1.59751 9.83567 0
25 3 H 2.75753 7.30436 3.66838 0
31 2 C 7.15057 4.24538 3.55828 0
32 2 C 5.97013 4.29672 4.31023 0
33 2 C 4.80684 3.6547 3.85226 0
34 2 C 3.62923 3.65534 4.59104 0
35 2 C 4.83102 2.97555 2.62528 0
46 2 C 0.0778354 4.67074 2.3805 0
47 2 C 1.27439 5.32845 2.58634 0
48 2 C 2.14515 5.66692 1.5628 0
52 2 C 3.4546 6.30353 1.86987 0
55 2 C 5.95615 7.3998 2.54674 0
57 2 C 3.60168 7.10569 3.01998 0
58 2 C 0.868155 2.28537 9.01853 0
61 2 C 0.479967 0.679024 4.97258 0
63 4 N 3.53573 4.19259 5.6644 0
66 7 O 0.488009 5.04179 4.46821 0
67 5 O 1.75849 2.51309 8.13286 0
68 5 O 0.96378 5.64021 7.4982 0
69 5 O 1.32231 1.63466 4.88434 0
302 3 H 1.65985 0.367577 2.57437 0
182 2 C 6.00649 2.92458 1.87243 0
183 2 C 7.16552 3.54898 2.33972 0
150 3 H 7.58928 6.62001 5.19756 0
126 2 C 4.58511 6.07051 1.06064 0
127 2 C 5.82477 6.62012 1.39745 0
153 3 H 6.0204 2.39559 0.928072 0
94 3 H 4.52761 5.43863 0.186191 0
122 2 C 1.76009 5.27102 0.266332 0
95 3 H 6.68938 6.42458 0.776266 0
123 2 C 0.552492 4.5489 0.0417386 0
1 9 Zn 14.6687 4.3017 4.19086 0
3 3 H 10.1794 7.03544 5.68168 0
26 2 C 11.7667 5.0442 4.46023 0
27 2 C 10.3965 5.21428 4.44597 0
28 2 C 9.74391 6.23784 5.0931 0
29 2 C 8.41995 6.02213 4.84606 0
30 2 C 8.3757 4.88701 4.05782 0
62 4 N 12.2692 4.09616 3.91947 0
64 8 O 9.57555 4.39853 3.81091 0
70 5 O 14.4931 6.49863 5.13806 0
71 5 O 14.6453 3.46494 6.48476 0
72 5 O 14.9588 5.15194 1.94519 0
73 5 O 15.0915 2.04737 3.28859 0
352 2 C 15.4794 7.14083 5.63107 0
154 3 H 8.07068 3.49588 1.7473 0
93 3 H 14.4576 4.29238 9.15264 0
124 2 C 15.2676 3.61728 9.39894 0
350 2 C 15.7968 3.24608 6.98893 0
351 2 C 16.0856 5.64176 1.59993 0
10 3 H 17.4781 1.47701 0.514894 0
294 9 Zn 17.0631 4.62242 4.34091 0
297 3 H 21.9717 4.67689 5.25696 0
298 3 H 19.6737 1.10946 5.97826 0
301 3 H 15.8666 4.48568 4.25952 0
310 3 H 17.6009 5.9972 1.53655 0
311 3 H 17.6421 1.56884 7.9741 0
313 3 H 19.9179 1.77328 8.77223 0
317 3 H 19.9711 7.2284 1.75834 0
323 2 C 23.0652 3.01314 6.10366 0
324 2 C 21.9174 3.65498 5.6057 0
325 2 C 20.6885 2.97567 5.55695 0
326 2 C 19.5224 3.57846 5.09983 0
327 2 C 20.6141 1.64882 6.00324 0
338 2 C 16.6286 5.771 0.276762 0
339 2 C 17.9616 6.04383 0.503891 0
341 2 C 17.0903 2.08454 8.75148 0
342 2 C 15.9878 2.91362 8.40102 0
347 2 C 23.0521 6.74824 0.429296 0
348 2 C 22.0637 7.10858 1.34578 0
349 2 C 20.7139 6.93424 1.02773 0
353 2 C 16.2702 1.75269 2.8947 0
355 4 N 19.4741 4.70007 4.66349 0
358 7 O 17.0763 5.90913 2.38084 0
359 5 O 16.8493 3.46275 6.31306 0
360 5 O 16.6668 6.68174 5.53999 0
361 5 O 17.2336 2.56416 3.09528 0
474 2 C 21.7506 1.00481 6.49148 0
475 2 C 22.9696 1.6811 6.5434 0
39 2 C 17.213 0.521963 0.95493 0
330 2 C 16.5411 0.48617 2.18575 0
345 2 C 19.8839 1.21725 9.69909 0
413 2 C 17.5293 1.99204 10.0852 0
442 3 H 23.8766 5.80335 5.60121 0
315 3 H 24.0965 6.88794 0.676538 0
59 2 C 31.1685 4.47153 3.73361 0
60 2 C 31.3467 6.02751 7.77414 0
293 9 Zn 30.541 3.06738 6.52978 0
295 3 H 26.4998 6.12497 5.80193 0
318 2 C 27.7803 3.70575 6.44175 0
319 2 C 26.4336 3.97724 6.31555 0
320 2 C 25.9415 5.2135 5.97403 0
321 2 C 24.5943 5.04101 5.86961 0
322 2 C 24.3714 3.7029 6.15048 0
354 4 N 28.1763 2.62221 6.77899 0
356 8 O 25.4918 3.06103 6.43203 0
362 5 O 30.3348 5.32059 7.44148 0
363 5 O 31.1889 2.39152 8.73598 0
364 5 O 30.2138 3.75028 4.16916 0
365 5 O 30.9845 0.830432 5.66563 0
303 3 H 30.3001 6.36172 10.2332 0
446 3 H 23.838 1.16076 6.92822 0
42 2 C 31.1522 7.29359 8.48653 0
333 2 C 30.581 7.29921 9.76717 0
312 3 H 30.3497 3.66062 0.981868 0
343 2 C 31.2465 4.25215 1.11625 0
23 3 H 6.92108 7.80888 2.81384 0
56 2 C 4.84534 7.64904 3.35319 0
24 3 H 4.94981 8.25739 4.24225 0
12 3 H 0.386085 8.50034 6.88629 0
151 3 H 6.51613 13.3921 6.34597 0
155 3 H 0.370634 13.5728 6.37284 0
178 2 C 6.53947 14.4157 6.70083 0
180 2 C 4.10369 14.4758 6.86576 0
192 2 C 0.989955 11.8389 2.48107 0
194 2 C 3.22273 11.2456 1.70655 0
215 5 O 1.19923 11.4176 7.74211 0
148 9 Zn 1.5618 13.4211 6.42047 0
164 3 H 1.98777 11.775 3.73855 0
170 3 H 6.97528 11.6744 4.45903 0
171 3 H 4.58998 11.961 3.97917 0
193 2 C 2.32131 11.5568 2.72105 0
198 2 C 4.67279 11.0402 2.00753 0
201 2 C 7.41916 10.7347 2.57782 0
202 2 C 6.57424 11.3281 3.51522 0
203 2 C 5.21349 11.4829 3.23514 0
205 2 C 0.484048 12.1916 3.78336 0
209 4 N 3.96625 13.3253 6.53967 0
212 7 O 1.48815 12.0116 4.56779 0
273 2 C 6.9037 10.2869 1.36103 0
15 3 H 4.60371 9.73415 9.73481 0
309 3 H 5.47211 8.2575 10.2646 0
454 3 H 3.87402 8.07855 9.47161 0
489 2 C 0.461626 11.8634 1.20114 0
118 1 C 4.46725 8.71649 10.1644 0
240 3 H 5.18332 10.0507 0.131527 0
241 3 H 7.55907 9.81758 0.638584 0
268 2 C 2.70408 11.261 0.390188 0
269 2 C 1.34024 11.5803 0.132166 0
272 2 C 5.5417 10.4293 1.07734 0
213 5 O 1.47131 14.7125 8.30721 0
11 3 H 14.2254 7.46978 7.9835 0
169 3 H 8.47276 10.6174 2.79612 0
4 3 H 8.63946 12.3225 7.01902 0
14 3 H 13.2828 8.59889 9.86421 0
40 2 C 14.2087 9.62159 8.17198 0
41 2 C 14.5287 8.41052 7.53837 0
44 1 C 13.4536 9.63078 9.47613 0
149 3 H 11.1132 11.9778 6.08258 0
156 3 H 14.3036 11.7722 8.03681 0
159 3 H 14.0869 10.1381 10.2343 0
172 2 C 12.1816 14.4023 5.13287 0
173 2 C 10.9302 14.1393 5.64814 0
174 2 C 10.5412 12.8972 6.09555 0
175 2 C 9.27736 13.0747 6.57359 0
176 2 C 9.008 14.4179 6.39379 0
185 2 C 14.573 10.8329 7.56714 0
219 5 O 14.5948 12.8385 5.30949 0
334 2 C 15.2265 8.40917 6.32159 0
335 2 C 15.6133 9.62284 5.7387 0
337 1 C 11.2378 9.54821 8.79668 0
357 6 O 12.2481 10.3619 9.35305 0
476 2 C 15.2727 10.836 6.35325 0
499 2 C 15.5645 12.105 5.68521 0
218 5 O 14.5869 14.0698 1.99682 0
90 3 H 11.5326 9.15415 7.79881 0
235 3 H 10.9766 8.71249 9.4826 0
380 3 H 10.3263 10.1647 8.6549 0
497 2 C 15.5854 13.368 1.61289 0
316 3 H 22.3431 7.52956 2.30306 0
304 3 H 16.1299 9.62457 4.78541 0
328 2 C 22.0475 14.0257 7.93689 0
329 2 C 23.2514 13.8277 7.26145 0
443 3 H 22.0601 13.6061 4.07517 0
447 3 H 15.9769 14.7015 4.17214 0
469 2 C 23.2678 13.6654 5.86431 0
470 2 C 22.0594 13.7096 5.15256 0
471 2 C 20.8479 13.9191 5.83218 0
472 2 C 19.6344 14.0249 5.16936 0
473 2 C 20.8499 14.0719 7.22611 0
484 2 C 15.9663 12.9164 0.288001 0
507 5 O 16.7672 12.4583 5.46006 0
440 9 Zn 17.1352 14.401 4.09027 0
456 3 H 16.9524 12.6123 1.53342 0
461 3 H 22.9228 9.89102 0.515141 0
462 3 H 21.8859 11.5362 2.04821 0
463 3 H 19.6285 12.3933 1.60599 0
485 2 C 17.1896 12.3135 0.520482 0
493 2 C 21.9227 10.2559 0.320427 0
494 2 C 21.3381 11.1819 1.18456 0
495 2 C 20.0502 11.6609 0.930553 0
501 4 N 19.509 13.9136 3.97806 0
504 7 O 16.5524 12.972 2.36501 0
299 3 H 22.0432 14.1514 9.01224 0
444 3 H 19.9242 14.2371 7.76611 0
17 3 H 20.8242 9.56815 7.89895 0
162 3 H 19.2146 9.4374 7.11886 0
307 3 H 19.9623 11.0732 7.44605 0
87 3 H 17.2974 10.0432 8.37175 0
117 1 C 17.9591 10.6308 9.04657 0
232 3 H 18.0272 11.6725 8.65462 0
410 1 C 19.822 10.0387 7.83202 0
430 6 O 19.2424 10.0472 9.11789 0
43 2 C 31.5235 8.50215 7.88301 0
207 2 C 31.5691 10.9815 7.85926 0
184 2 C 31.296 9.716 8.54299 0
300 3 H 24.1709 13.801 7.83315 0
296 3 H 23.9796 12.7257 3.1616 0
441 3 H 26.6164 12.6562 2.80451 0
464 2 C 27.9721 13.4963 5.14617 0
465 2 C 26.6207 13.4211 4.8785 0
466 2 C 26.0863 12.9788 3.69146 0
467 2 C 24.7342 13.0169 3.87914 0
468 2 C 24.5565 13.4762 5.17342 0
477 2 C 30.7198 9.71928 9.82098 0
502 8 O 25.703 13.7231 5.77493 0
511 5 O 30.588 11.6306 7.37037 0
439 9 Zn 30.7439 13.7543 6.32445 0
510 5 O 30.9362 12.7345 4.09825 0
500 4 N 28.3502 13.9254 6.20291 0
458 3 H 30.9988 12.1637 1.03793 0
509 5 O 30.8382 14.7748 8.53201 0
37 2 C 7.79392 16.4249 7.21792 0
177 2 C 7.76386 15.0894 6.78761 0
179 2 C 5.34398 15.0795 7.02119 0
38 2 C 0.895149 20.0013 4.28141 0
331 2 C 1.54924 20.0205 3.03997 0
7 3 H 6.63667 18.1079 7.89639 0
36 2 C 6.60949 17.0787 7.56208 0
152 3 H 4.47474 16.9419 7.705 0
181 2 C 5.38757 16.4121 7.45661 0
165 3 H 2.51051 16.5836 9.66772 0
188 2 C 0.944492 17.5567 4.24228 0
189 2 C 0.573521 18.7623 4.87042 0
204 2 C 0.441286 15.0433 8.97218 0
206 2 C 0.70612 16.2565 4.90124 0
211 6 O 3.80392 19.5707 1.18553 0
214 5 O 1.68241 15.4508 5.06839 0
449 3 H 1.89059 16.6707 2.52023 0
452 3 H 2.75959 17.853 0.667378 0
478 2 C 1.89571 18.8265 2.39158 0
479 2 C 1.60557 17.5972 3.00503 0
482 1 C 2.57787 18.8821 1.05274 0
305 3 H 1.89278 19.407 0.347961 0
234 3 H 5.33311 20.307 0.030157 0
210 8 O 10.0091 15.0655 5.82818 0
147 9 Zn 14.8227 14.999 4.29996 0
8 3 H 8.7333 16.9595 7.28898 0
208 4 N 12.4657 15.4719 4.66394 0
216 5 O 15.2953 17.1462 3.32695 0
217 5 O 15.3611 15.9118 6.48922 0
239 3 H 15.0753 16.4333 9.04097 0
16 3 H 12.9085 20.6351 1.30168 0
163 3 H 12.129 18.9933 1.10432 0
453 3 H 11.2605 20.4832 0.61172 0
86 3 H 14.7277 19.8001 0.0700712 0
556 1 C 12.2595 20.0031 0.654885 0
450 3 H 15.824 19.8134 3.70523 0
314 3 H 22.0519 21.1339 9.5083 0
459 3 H 20.84 18.2313 7.90494 0
460 3 H 23.2541 18.3873 8.33137 0
157 3 H 17.6308 17.7796 0.364755 0
186 2 C 17.679 19.9366 0.283884 0
187 2 C 17.36 18.7003 0.868164 0
445 3 H 21.8199 20.5815 6.83494 0
457 3 H 19.1066 16.7671 7.45798 0
480 2 C 16.6854 18.646 2.09794 0
481 2 C 16.3266 19.8459 2.74559 0
487 2 C 18.413 16.869 8.28262 0
488 2 C 17.03 16.599 8.0741 0
491 2 C 21.2295 17.8665 8.84632 0
492 2 C 22.6041 17.9606 9.08425 0
496 2 C 16.5946 16.0832 6.76742 0
498 2 C 16.4063 17.3401 2.7297 0
505 5 O 17.4872 15.7127 5.94615 0
506 5 O 17.2969 16.4208 2.71083 0
270 2 C 16.1242 16.6774 9.15253 0
559 2 C 18.9173 17.1738 9.56348 0
563 2 C 20.373 17.3155 9.81947 0
346 2 C 21.157 21.1229 10.1168 0
158 3 H 31.6499 18.7357 5.83752 0
508 5 O 31.1071 15.947 5.32247 0
308 3 H 28.7188 19.471 3.45877 0
161 3 H 27.0521 19.3901 2.8026 0
455 3 H 27.8624 17.865 3.28592 0
378 3 H 30.4776 18.5651 2.18826 0
264 1 C 28.0293 18.8658 2.82836 0
284 6 O 28.5134 18.7523 1.50869 0
525 3 H 29.594 17.0176 1.88561 0
555 1 C 29.7436 18.06 1.52128 0
375 3 H 30.4736 20.196 0.0119601 0
551 2 C 30.3208 18.0457 0.133143 0
50 2 C 1.30534 2.0738 10.4063 0
49 2 C 2.67052 1.76752 10.6725 0
53 2 C 5.5334 1.02778 11.3656 0
75 9 Zn 1.46169 3.94085 16.7101 0
78 3 H 6.42103 3.90128 16.6588 0
82 3 H 0.267877 4.10123 16.6459 0
91 3 H 1.93686 2.3259 14.0114 0
92 3 H 2.37768 7.0819 19.9653 0
104 2 C 7.65624 5.60147 17.1347 0
105 2 C 6.43845 4.91299 17.0454 0
106 2 C 5.23798 5.55281 17.3961 0
107 2 C 4.00151 4.94436 17.2262 0
108 2 C 5.26964 6.87437 17.8643 0
119 2 C 0.947756 2.37284 12.7488 0
120 2 C 2.27839 2.09623 12.9982 0
121 2 C 3.18659 1.77679 11.9912 0
125 2 C 4.6385 1.5887 12.3035 0
131 2 C 0.300127 5.56728 19.2527 0
132 2 C 0.43335 2.74596 14.0414 0
136 4 N 3.86793 3.79467 16.8954 0
139 7 O 1.43088 2.57087 14.8349 0
140 5 O 1.33293 5.20441 18.609 0
142 5 O 0.983045 1.93947 17.9816 0
416 2 C 0.423879 2.37379 11.468 0
141 5 O 1.69217 5.98485 15.3832 0
256 2 C 7.67273 6.92404 17.6049 0
79 3 H 4.35263 7.38748 18.1314 0
133 2 C 0.731186 6.80376 15.1991 0
376 3 H 1.92945 7.20649 12.8222 0
97 3 H 6.89718 2.18708 14.8055 0
98 3 H 4.51458 2.44065 14.3051 0
128 2 C 7.38477 1.32141 12.9005 0
129 2 C 6.51561 1.86491 13.8454 0
130 2 C 5.15565 2.00104 13.5525 0
20 3 H 15.0515 6.86553 19.4067 0
74 9 Zn 14.7371 5.77107 14.6536 0
76 3 H 11.0169 2.56502 16.1771 0
83 3 H 14.5414 2.4729 18.4639 0
99 2 C 12.0878 5.0636 15.4488 0
100 2 C 10.8344 4.75565 15.9364 0
101 2 C 10.4442 3.47918 16.2704 0
102 2 C 9.17837 3.61257 16.758 0
103 2 C 8.90671 4.96611 16.6958 0
135 4 N 12.3739 6.17337 15.0859 0
137 8 O 9.91056 5.66131 16.1933 0
144 5 O 15.3344 6.63676 16.8375 0
145 5 O 14.4409 4.87327 12.3372 0
146 5 O 14.5892 3.58 15.6353 0
424 2 C 15.4172 4.12858 11.9831 0
426 2 C 15.5859 2.88479 16.0169 0
223 3 H 8.5406 2.82216 17.1313 0
411 2 C 15.7332 3.513 10.7057 0
96 3 H 8.43775 1.21881 13.129 0
112 2 C 14.7641 1.55046 17.9394 0
403 2 C 15.3449 1.59641 16.6654 0
503 6 O 19.4407 1.66076 19.6352 0
483 1 C 20.0147 1.87141 18.3643 0
526 3 H 21.0086 2.34518 18.4993 0
51 2 C 16.0848 7.15965 19.5423 0
89 3 H 19.3932 2.56396 17.7537 0
367 9 Zn 17.0402 5.20942 14.4128 0
370 3 H 21.9724 4.36902 14.2502 0
374 3 H 15.8885 5.50059 14.5254 0
383 3 H 16.6763 3.20382 11.9843 0
386 3 H 21.0754 7.17662 18.4558 0
396 2 C 23.4417 5.75788 15.0079 0
397 2 C 22.1408 5.35324 14.6688 0
398 2 C 21.0505 6.20765 14.9111 0
399 2 C 19.738 5.83 14.6609 0
412 2 C 16.8512 2.76242 11.014 0
415 2 C 16.9867 7.25312 18.4616 0
417 2 C 18.7228 1.21836 10.4916 0
423 2 C 16.5653 6.83155 17.1162 0
428 4 N 19.4264 4.78503 14.1522 0
431 7 O 16.3485 3.71317 12.7663 0
432 5 O 17.4645 6.53562 16.2694 0
434 5 O 16.7761 3.28885 15.8096 0
433 5 O 17.1004 7.21164 12.986 0
548 2 C 23.6433 7.02641 15.5791 0
13 3 H 17.5317 1.57106 18.7891 0
515 3 H 23.8814 3.40598 13.2954 0
385 3 H 30.9601 2.66722 11.2981 0
134 2 C 31.3419 1.52744 18.0834 0
366 9 Zn 30.6462 4.33338 16.5575 0
368 3 H 26.3544 2.44513 13.5528 0
391 2 C 27.8471 3.98765 15.4043 0
392 2 C 26.5292 4.10121 15.007 0
393 2 C 25.9228 3.28694 14.079 0
394 2 C 24.6559 3.78158 13.9505 0
395 2 C 24.5981 4.86617 14.808 0
427 4 N 28.2817 4.71598 16.256 0
429 8 O 25.7344 5.05535 15.4496 0
436 5 O 30.698 5.34576 18.7829 0
437 5 O 30.8888 3.30643 14.338 0
438 5 O 30.3752 2.20053 17.5916 0
435 5 O 31.1215 6.5048 15.5899 0
519 3 H 24.6373 7.35913 15.8519 0
80 3 H 6.13532 13.6601 11.2804 0
85 3 H 0.112099 9.2869 16.1234 0
109 2 C 6.10497 14.1887 12.2246 0
115 2 C 0.98707 8.10073 14.543 0
116 2 C 0.607273 9.30897 15.1596 0
138 6 O 3.87071 8.77511 11.4407 0
225 3 H 4.04946 13.6989 12.5931 0
254 2 C 4.92507 14.215 12.9709 0
257 2 C 0.918521 10.5452 14.5596 0
280 2 C 0.608084 11.826 15.2362 0
288 5 O 1.43827 12.7934 15.1598 0
379 3 H 1.94882 8.80467 10.6251 0
405 2 C 1.92632 9.35802 12.6797 0
406 2 C 1.64491 8.13431 13.3057 0
409 1 C 2.59582 9.37172 11.3332 0
521 3 H 1.80871 11.5062 12.8464 0
524 3 H 2.69008 10.4187 10.963 0
550 2 C 1.57485 10.5585 13.3179 0
226 3 H 6.50127 8.57266 18.3403 0
238 3 H 3.32647 12.7086 20.0862 0
255 2 C 6.48394 7.5524 17.9788 0
277 2 C 0.86868 13.4269 19.2832 0
286 5 O 1.76346 13.6888 18.4119 0
228 3 H 0.156165 14.5102 16.6651 0
227 3 H 8.60487 7.47063 17.68 0
197 2 C 15.4311 14.692 19.5354 0
143 5 O 15.1314 7.94771 13.6825 0
292 5 O 15.079 13.4675 13.4623 0
377 3 H 15.69 10.6426 13.9447 0
340 2 C 18.8498 7.77521 20.0092 0
344 2 C 20.2931 7.99584 20.3191 0
419 2 C 22.6552 7.81185 19.731 0
486 2 C 17.9404 13.3826 20.0492 0
490 2 C 19.2891 12.8239 20.3402 0
565 2 C 21.1769 11.4023 19.7446 0
400 2 C 21.2723 7.47151 15.4771 0
414 2 C 18.3535 7.58503 18.697 0
371 3 H 20.4433 8.14125 15.6773 0
384 3 H 19.0276 7.64305 17.8552 0
387 3 H 23.4231 7.52492 19.0239 0
418 2 C 21.3074 7.62637 19.4094 0
84 3 H 17.2964 8.48829 10.5754 0
113 2 C 17.3377 10.6375 10.4165 0
114 2 C 17.0527 9.42488 11.0639 0
229 3 H 17.2883 12.7897 10.5786 0
258 2 C 17.0461 11.8495 11.0612 0
372 3 H 21.6387 11.1628 16.6113 0
401 2 C 21.7443 12.182 16.264 0
402 2 C 23.0051 12.7768 16.2181 0
407 2 C 16.4511 9.41505 12.3326 0
408 2 C 16.1328 10.639 12.9555 0
425 2 C 16.2099 8.12989 13.0245 0
517 3 H 19.6461 12.4202 15.9106 0
542 2 C 23.1532 14.0981 15.7615 0
544 2 C 20.7427 14.219 15.4081 0
546 2 C 20.6179 12.8989 15.8633 0
549 2 C 16.4494 11.859 12.3303 0
572 2 C 16.231 13.1492 13.0141 0
580 5 O 17.2138 13.9511 13.149 0
518 3 H 22.7281 8.85303 16.2487 0
530 3 H 18.0699 13.2113 17.9067 0
532 3 H 19.3625 11.4913 18.621 0
533 3 H 21.6296 10.6768 19.0819 0
547 2 C 22.564 7.87925 15.8057 0
560 2 C 17.4539 13.531 18.7372 0
561 2 C 16.2281 14.2048 18.4719 0
564 2 C 19.8861 11.8733 19.4871 0
569 2 C 15.9601 14.6083 17.0882 0
448 3 H 30.5363 10.6601 10.3274 0
45 1 C 27.4742 8.37926 11.475 0
65 6 O 28.5397 9.23769 11.8207 0
306 3 H 29.6514 7.49144 12.2345 0
332 2 C 30.3705 8.51113 10.4444 0
336 1 C 29.7606 8.52298 11.8224 0
88 3 H 26.5449 8.98057 11.4024 0
382 3 H 27.6416 7.8979 10.4858 0
527 3 H 27.3153 7.60765 12.2606 0
451 3 H 30.4619 9.04475 12.5052 0
373 3 H 23.8655 12.1997 16.5338 0
575 8 O 25.5577 14.1177 16.2486 0
584 5 O 31.0948 11.9665 15.9047 0
573 4 N 28.2018 13.7107 16.9393 0
582 5 O 31.1902 13.5151 18.9895 0
541 2 C 24.5006 14.7029 15.7098 0
512 9 Zn 30.5791 14.1924 16.7623 0
537 2 C 27.8765 14.668 16.2885 0
531 3 H 30.4594 14.7581 11.2356 0
21 3 H 5.33369 21.2748 10.4023 0
196 2 C 0.657521 15.6471 10.2891 0
381 3 H 3.66026 22.1121 19.8581 0
22 3 H 7.70339 21.0749 10.934 0
167 3 H 4.61452 16.6337 10.396 0
168 3 H 6.7613 17.6491 10.9818 0
191 1 C 4.30863 21.4219 20.4426 0
195 2 C 1.85763 16.3834 10.5068 0
199 2 C 4.66613 17.2542 11.2791 0
200 2 C 5.89875 17.8214 11.6127 0
54 2 C 7.02888 21.5056 11.6629 0
110 2 C 7.24689 14.8393 12.6966 0
250 2 C 7.21093 15.5368 13.9142 0
252 2 C 4.87956 14.894 14.1971 0
251 2 C 6.02612 15.5615 14.6614 0
221 9 Zn 1.27886 14.8507 16.4703 0
224 3 H 6.00332 16.0849 15.6097 0
231 3 H 0.289009 19.6482 17.1058 0
237 3 H 1.03594 16.3775 13.8564 0
242 3 H 6.987 19.0086 13.0364 0
243 3 H 5.02063 19.4064 14.4856 0
244 3 H 2.84109 18.4238 13.9188 0
253 2 C 3.69547 14.8725 14.9245 0
265 2 C 0.175647 15.7943 12.6228 0
266 2 C 1.36586 16.4642 12.8266 0
267 2 C 2.23637 16.7992 11.7999 0
271 2 C 3.53835 17.4559 12.1015 0
274 2 C 6.02668 18.588 12.771 0
275 2 C 4.9188 18.8081 13.5894 0
276 2 C 3.682 18.2474 13.2599 0
282 4 N 3.58069 15.4038 15.9986 0
285 7 O 0.562727 16.1891 14.7075 0
287 5 O 0.924488 16.8044 17.7538 0
528 3 H 4.47163 20.4737 19.8831 0
77 3 H 7.59563 17.9038 15.5834 0
233 3 H 13.8773 19.831 20.256 0
166 3 H 14.5248 15.258 19.3605 0
81 3 H 8.15506 14.8067 12.1073 0
283 8 O 9.63113 15.7647 14.141 0
281 4 N 12.3261 15.547 14.1901 0
290 5 O 14.7846 14.8533 16.6562 0
222 3 H 10.1787 18.3958 16.0357 0
246 2 C 10.4355 16.5983 14.7736 0
247 2 C 9.76006 17.5914 15.4445 0
248 2 C 8.43958 17.336 15.2141 0
249 2 C 8.42004 16.2097 14.4123 0
220 9 Zn 14.7342 15.7242 14.373 0
230 3 H 14.6239 18.7722 18.2825 0
245 2 C 11.8105 16.4701 14.7608 0
259 2 C 14.6023 20.9186 18.5391 0
260 2 C 14.8698 19.7304 17.839 0
263 1 C 13.9934 20.8846 19.9129 0
289 5 O 14.6311 17.9157 15.3442 0
291 5 O 14.9677 16.5685 12.1096 0
553 2 C 15.4438 19.7739 16.5594 0
571 2 C 15.6477 18.5289 15.8128 0
576 6 O 12.7365 21.5266 19.8803 0
554 2 C 15.7627 21.008 15.9807 0
578 5 O 16.9734 14.8423 16.3605 0
543 2 C 22.0134 14.8166 15.3566 0
545 2 C 19.5847 14.8912 15.0349 0
160 3 H 18.4828 20.5859 19.077 0
190 1 C 18.331 21.6115 19.4848 0
570 2 C 16.0948 17.0278 11.7235 0
388 3 H 22.0295 19.8893 11.649 0
389 3 H 19.9856 19.8573 13.0471 0
390 3 H 17.9737 21.0901 12.3334 0
420 2 C 21.1454 20.4207 11.3242 0
421 2 C 19.9938 20.4053 12.1136 0
422 2 C 18.8553 21.1049 11.704 0
236 3 H 20.3043 21.5116 17.8248 0
513 9 Zn 17.1352 16.011 14.4142 0
516 3 H 22.1056 15.8371 15.0108 0
520 3 H 15.9354 15.8973 14.3908 0
523 3 H 16.1887 21.0442 14.9841 0
529 3 H 17.6282 17.2949 11.6311 0
535 3 H 22.717 16.611 12.2025 0
536 3 H 20.2973 16.4323 11.8016 0
557 2 C 16.6445 17.0005 10.3969 0
558 2 C 17.9943 17.2153 10.6024 0
566 2 C 23.1398 17.5065 10.2915 0
567 2 C 22.3013 16.9623 11.2668 0
568 2 C 20.9259 16.8683 11.0356 0
574 4 N 19.5655 16.0228 14.6233 0
577 7 O 17.0988 17.3222 12.4767 0
579 5 O 16.8232 18.0545 15.6615 0
538 2 C 26.5605 14.9257 15.9611 0
562 2 C 31.3521 15.3571 11.3643 0
534 3 H 24.2043 17.5795 10.4727 0
111 2 C 31.1833 20.8622 18.7574 0
404 2 C 30.6154 20.8632 20.0387 0
369 3 H 24.1794 16.571 14.5427 0
514 3 H 26.7957 16.8336 14.8722 0
539 2 C 26.1711 16.0312 15.2441 0
540 2 C 24.827 15.8917 15.0791 0
261 2 C 31.0675 18.4377 18.7094 0
262 2 C 31.4215 19.6488 18.1004 0
278 2 C 31.2555 15.6044 13.9703 0
279 2 C 31.2955 17.1703 18.0085 0
522 3 H 30.2411 17.5007 20.4646 0
552 2 C 30.501 18.4411 19.9923 0
581 5 O 30.3032 16.4412 17.6653 0
583 5 O 30.3063 14.8728 14.3993 0
ITEM: TIMESTEP
2500
ITEM: NUMBER OF ATOMS
584
ITEM: BOX BOUNDS xy xz yz pp pp pp
-1.2406899852796012e+00 3.2035806032560991e+01 -4.2144307911295274e-02
-7.6724207940787037e-01 2.0670682170643865e+01 -7.2737482481528137e-01
-2.9938417842308951e-01 2.0834801498423186e+01 -6.9778526876396574e-01
ITEM: ATOMS id type element x y z q
2 9 Zn 0.791576 4.1486 4.6578 0
5 3 H 5.68227 3.65608 6.00845 0
6 3 H 4.17271 1.16461 2.82104 0
9 3 H -0.425573 4.06236 4.4837 0
18 3 H 1.48706 5.14094 1.76116 0
19 3 H 0.980151 0.800167 7.88078 0
25 3 H 4.20651 5.38702 2.05803 0
31 2 C 7.04002 2.14762 5.26104 0
32 2 C 5.8214 2.85676 5.29061 0
33 2 C 4.77596 2.51008 4.40802 0
34 2 C 3.52082 3.12069 4.43666 0
35 2 C 4.96661 1.45785 3.49943 0
46 2 C 0.529562 5.22358 0.464238 0
47 2 C 1.87433 5.05584 0.743257 0
48 2 C 2.82485 4.83689 -0.250113 0
52 2 C 4.22334 4.45135 0.0979896 0
55 2 C 6.82746 3.63402 0.803314 0
57 2 C 4.77506 4.80141 1.34662 0
58 2 C -0.631341 2.76284 7.22705 0
61 2 C -0.0450139 1.28545 3.24615 0
63 4 N 3.26261 4.10832 5.07649 0
66 7 O 0.938359 5.24468 2.5865 0
67 5 O 0.460916 3.07294 6.6562 0
68 5 O 0.33862 6.27706 5.77856 0
69 5 O 0.932458 2.04612 3.54161 0
302 3 H 1.09728 0.942167 0.857629 0
182 2 C 6.18057 0.771638 3.4537 0
126 2 C 4.27478 2.97244 20.3494 0
127 2 C 6.29417 3.27125 -0.433353 0
153 3 H 6.31785 -0.0357469 2.74572 0
56 2 C 6.06884 4.3969 1.69231 0
24 3 H 6.48146 4.67147 2.65457 0
12 3 H -0.283816 9.14807 5.01276 0
201 2 C 4.22885 8.37332 0.416769 0
202 2 C 3.85038 9.28731 1.40069 0
273 2 C 2.90243 7.71915 20.2921 0
15 3 H 2.7299 8.47338 7.79993 0
309 3 H 3.71401 7.12237 8.45407 0
454 3 H 1.98665 6.82635 8.07723 0
118 1 C 2.70455 7.58183 8.46683 0
272 2 C 1.92437 8.67864 20.0122 0
50 2 C -0.544259 2.16101 8.55847 0
169 3 H 4.98516 7.62996 0.630551 0
59 2 C -0.0768312 5.21312 1.78602 0
343 2 C -0.679234 4.53973 20.2901 0
43 2 C 31.6488 9.14762 5.93276 0
170 3 H 4.31414 9.24998 2.37804 0
49 2 C 0.431939 1.14921 8.74487 0
379 3 H 0.402138 8.16987 9.16019 0
524 3 H 1.33738 9.6875 9.44396 0
183 2 C 7.21295 1.11478 4.32676 0
23 3 H 7.82631 3.31883 1.07605 0
150 3 H 7.06089 3.14134 8.00896 0
1 9 Zn 14.5559 2.86499 5.95221 0
3 3 H 9.54038 3.46542 8.94533 0
26 2 C 11.465 2.81699 6.96945 0
27 2 C 10.0817 2.70307 6.94145 0
28 2 C 9.25415 3.08799 7.97191 0
29 2 C 7.98534 2.93079 7.48759 0
30 2 C 8.13996 2.46078 6.19738 0
62 4 N 12.115 2.4636 6.0217 0
64 8 O 9.41207 2.30908 5.87069 0
70 5 O 14.3442 5.08272 6.79942 0
71 5 O 15.0721 2.12726 8.26954 0
72 5 O 14.4037 3.5697 3.5559 0
73 5 O 15.0095 0.669029 5.12966 0
352 2 C 15.3269 5.8228 7.14206 0
154 3 H 8.1426 0.560216 4.28505 0
11 3 H 14.3162 6.24992 9.5899 0
40 2 C 14.2369 8.40691 9.64363 0
41 2 C 14.5174 7.16861 9.05053 0
185 2 C 14.4868 9.58594 8.92373 0
334 2 C 15.0608 7.11231 7.7614 0
337 1 C 11.4579 7.82697 10.9892 0
476 2 C 15.0456 9.52635 7.63701 0
90 3 H 11.6613 7.1627 10.1196 0
380 3 H 10.4216 8.20868 10.8866 0
20 3 H 14.5305 3.70538 0.292428 0
335 2 C 15.3393 8.28951 7.06033 0
350 2 C 16.3086 2.04324 8.60214 0
351 2 C 15.3976 4.25364 3.14208 0
10 3 H 17.3509 0.169174 2.1716 0
294 9 Zn 16.8977 3.46315 5.75806 0
297 3 H 21.7532 3.96794 4.58433 0
298 3 H 20.8681 1.08431 7.66034 0
301 3 H 15.731 3.16969 5.89667 0
310 3 H 16.7241 5.06554 3.06078 0
311 3 H 18.8283 1.71567 9.46399 0
313 3 H 20.8293 2.1757 10.0447 0
317 3 H 18.3375 7.36498 3.21942 0
323 2 C 23.4372 2.8084 5.29232 0
324 2 C 22.0837 3.19901 5.2695 0
325 2 C 21.1455 2.58198 6.12114 0
326 2 C 19.785 2.89092 6.084 0
327 2 C 21.5743 1.57949 7.00325 0
338 2 C 15.8101 4.60617 1.78786 0
339 2 C 16.98 5.29209 2.03889 0
341 2 C 18.1269 1.6252 10.2776 0
342 2 C 16.7299 1.71229 9.98536 0
347 2 C 21.5616 7.51902 2.171 0
348 2 C 20.432 7.73401 2.96319 0
349 2 C 19.1979 7.20131 2.5822 0
353 2 C 16.1229 0.486516 4.53691 0
355 4 N 19.3306 3.80067 5.43746 0
358 7 O 16.3103 4.75335 3.90108 0
359 5 O 17.2173 2.34665 7.76172 0
360 5 O 16.533 5.45574 6.94765 0
361 5 O 17.0085 1.40581 4.52841 0
474 2 C 22.9173 1.20268 7.04558 0
475 2 C 23.8438 1.81012 6.19538 0
315 3 H 22.5205 7.91431 2.47697 0
316 3 H 20.5152 8.30345 3.87984 0
304 3 H 15.7635 8.24234 6.06331 0
17 3 H 20.9584 6.08764 10.5736 0
162 3 H 19.4123 5.97634 9.67455 0
307 3 H 20.2526 7.58667 9.88611 0
87 3 H 17.4926 6.97533 10.5934 0
410 1 C 20.0042 6.61471 10.368 0
314 3 H 23.1661 2.19202 10.7122 0
344 2 C 19.0831 6.44611 1.39923 0
442 3 H 23.1958 4.58367 2.95102 0
232 3 H 18.3388 8.52848 10.9705 0
445 3 H 23.2395 0.4309 7.73309 0
51 2 C 15.3986 4.32364 0.481851 0
340 2 C 17.7972 5.79947 1.04649 0
419 2 C 21.4577 6.78874 0.986737 0
565 2 C 22.3673 10.5099 0.597185 0
387 3 H 22.336 6.62123 0.376998 0
418 2 C 20.2272 6.25148 0.602024 0
60 2 C 31.6344 6.67806 5.87718 0
293 9 Zn 30.8517 3.88849 4.396 0
295 3 H 25.5618 5.3209 2.00214 0
318 2 C 27.67 4.20419 3.51932 0
319 2 C 26.2993 4.01913 3.62766 0
320 2 C 25.3746 4.64815 2.82931 0
321 2 C 24.1605 4.26955 3.32498 0
322 2 C 24.4386 3.43598 4.39568 0
354 4 N 28.407 3.63394 4.27656 0
356 8 O 25.7402 3.27666 4.56985 0
362 5 O 30.6749 5.99807 5.38803 0
363 5 O 30.7613 2.97494 6.64929 0
364 5 O 31.2371 4.8621 2.10461 0
365 5 O 31.2628 1.6515 3.48541 0
303 3 H 30.2692 6.99125 8.17433 0
446 3 H 24.8787 1.49418 6.23994 0
42 2 C 31.3053 7.93853 6.53811 0
333 2 C 30.538 7.93456 7.71286 0
184 2 C 31.188 10.3525 6.47003 0
477 2 C 30.4131 10.3516 7.64106 0
332 2 C 30.1037 9.14225 8.28143 0
416 2 C 31.2224 2.66338 9.65779 0
385 3 H 30.4878 3.44992 9.5407 0
45 1 C 27.1868 8.63096 8.75147 0
65 6 O 27.9901 9.62781 9.34937 0
336 1 C 29.301 9.13768 9.55965 0
88 3 H 26.1491 9.01488 8.67222 0
382 3 H 27.5373 8.39931 7.72193 0
198 2 C 2.26306 10.3171 -0.142016 0
151 3 H 5.64549 13.0261 4.04884 0
155 3 H -0.504058 14.2441 4.51076 0
178 2 C 5.81159 14.0478 3.72738 0
180 2 C 3.39569 14.5416 3.75859 0
192 2 C -0.494662 12.8879 0.399253 0
194 2 C 1.20989 11.3397 -0.421595 0
215 5 O 0.198746 11.9199 5.55526 0
148 9 Zn 0.6394 13.9012 4.36579 0
164 3 H 0.298616 12.2412 1.64468 0
171 3 H 2.60793 10.9502 1.90999 0
193 2 C 0.533293 11.9835 0.612611 0
203 2 C 2.87648 10.2528 1.12674 0
209 4 N 3.05758 13.4289 4.07199 0
212 7 O -0.0603879 12.6127 2.49484 0
213 5 O 1.04521 14.9194 6.4098 0
177 2 C 7.1277 14.5128 3.54365 0
179 2 C 4.71886 14.9172 3.52635 0
38 2 C 0.239685 -0.00160261 2.59537 0
331 2 C 0.875029 0.00014772 1.34732 0
7 3 H 6.43687 17.7152 2.60524 0
36 2 C 6.26289 16.694 2.92023 0
152 3 H 4.1336 16.9235 2.95367 0
181 2 C 4.95847 16.2379 3.11541 0
165 3 H 2.65374 14.9317 8.22297 0
188 2 C 0.2751 18.299 2.62066 0
189 2 C -0.0972583 19.5165 3.22547 0
204 2 C 0.142104 15.1118 7.2901 0
206 2 C -0.00351415 17.0015 3.27457 0
211 6 O 2.31027 19.5857 20.5733 0
214 5 O 0.831331 16.039 3.16449 0
449 3 H 1.1938 17.3862 0.895858 0
478 2 C 1.18285 19.5359 0.723763 0
479 2 C 0.917386 18.3198 1.37189 0
482 1 C 1.10066 18.8621 20.5013 0
21 3 H 1.76261 19.5576 8.22477 0
196 2 C 0.550852 15.1767 8.71169 0
167 3 H 4.22841 13.4763 8.89912 0
22 3 H 3.48014 17.8789 8.64869 0
195 2 C 1.9326 15.0177 9.02417 0
37 2 C 7.34346 15.84 3.14367 0
4 3 H 7.58783 11.7457 2.82054 0
149 3 H 10.0599 10.9369 3.42209 0
156 3 H 14.2665 10.548 9.37259 0
172 2 C 11.5527 13.0002 4.63944 0
173 2 C 10.2225 12.9886 4.23144 0
174 2 C 9.62182 11.9049 3.62927 0
175 2 C 8.35617 12.3171 3.32509 0
176 2 C 8.28703 13.6262 3.75378 0
219 5 O 14.3303 11.4199 6.42405 0
499 2 C 15.3143 10.762 6.90639 0
218 5 O 14.7958 12.9202 3.25035 0
210 8 O 9.41852 14.038 4.3058 0
147 9 Zn 14.501 13.6398 5.57458 0
8 3 H 8.34992 16.2112 2.99217 0
208 4 N 12.0246 13.9457 5.21741 0
216 5 O 14.9247 15.9074 4.82494 0
217 5 O 14.5473 14.3553 7.91776 0
239 3 H 14.3505 13.5571 10.655 0
16 3 H 12.7076 19.8915 2.36425 0
163 3 H 11.7439 18.4 1.92869 0
453 3 H 11.0976 20.0373 1.58858 0
86 3 H 14.5268 19.1327 1.06324 0
556 1 C 12.0255 19.43 1.61513 0
270 2 C 15.1655 14.237 10.8691 0
233 3 H 13.5955 17.6337 0.670593 0
263 1 C 13.7972 18.6827 0.352169 0
576 6 O 12.6006 19.4311 0.32733 0
39 2 C 17.0435 19.9647 2.63347 0
330 2 C 16.3647 19.9526 3.86035 0
461 3 H 23.8006 10.4366 2.20076 0
493 2 C 22.7724 10.6341 1.92611 0
497 2 C 15.9213 12.4273 2.90448 0
328 2 C 22.4282 16.3825 7.7577 0
329 2 C 23.4952 15.9914 6.94524 0
443 3 H 21.9088 13.5844 5.12378 0
447 3 H 15.7192 13.4219 5.67724 0
469 2 C 23.3234 14.9849 5.98024 0
470 2 C 22.0634 14.3586 5.86238 0
471 2 C 20.9799 14.7621 6.66888 0
472 2 C 19.6892 14.2499 6.49577 0
473 2 C 21.1751 15.7818 7.61256 0
484 2 C 16.4522 12.1931 1.5815 0
507 5 O 16.5156 11.1927 6.80932 0
440 9 Zn 16.945 13.2848 5.72337 0
456 3 H 17.399 11.9323 2.86451 0
462 3 H 22.1592 11.084 3.93594 0
463 3 H 19.841 11.5555 3.33814 0
485 2 C 17.7468 11.7926 1.84076 0
494 2 C 21.8473 10.9975 2.90294 0
495 2 C 20.5211 11.2599 2.55078 0
501 4 N 19.4453 13.2787 5.8228 0
504 7 O 16.8891 12.1193 3.69816 0
299 3 H 22.5679 17.167 8.49061 0
444 3 H 20.3541 16.1206 8.23498 0
450 3 H 15.4979 18.7075 5.40226 0
459 3 H 17.9729 18.345 10.3733 0
460 3 H 19.907 19.7748 10.8394 0
157 3 H 17.341 16.6136 2.12678 0
186 2 C 17.3816 18.766 1.99382 0
187 2 C 17.0625 17.5459 2.60498 0
457 3 H 17.5448 16.1954 9.35078 0
480 2 C 16.3775 17.5189 3.82837 0
481 2 C 16.0097 18.725 4.44695 0
487 2 C 16.9844 15.7284 10.153 0
488 2 C 15.9004 14.8718 9.83892 0
491 2 C 18.6906 18.0317 11.1216 0
496 2 C 15.7075 14.5174 8.43247 0
498 2 C 16.106 16.2217 4.46372 0
505 5 O 16.7622 14.2982 7.75375 0
506 5 O 17.0684 15.4018 4.62355 0
490 2 C 20.09 11.1603 1.20682 0
296 3 H 23.487 13.3335 3.55877 0
197 2 C 15.9834 12.3793 0.288185 0
503 6 O 19.3113 19.4772 0.806313 0
486 2 C 18.6745 11.5083 0.844527 0
190 1 C 18.0798 18.8019 0.664964 0
448 3 H 30.0627 11.2883 8.05947 0
205 2 C 31.621 13.255 1.75056 0
207 2 C 31.4914 11.6069 5.78796 0
300 3 H 24.4516 16.4858 7.06266 0
441 3 H 25.9641 13.0715 2.67123 0
464 2 C 27.7991 14.4378 4.29391 0
465 2 C 26.4138 14.4094 4.37013 0
466 2 C 25.638 13.6633 3.51718 0
467 2 C 24.3659 13.7954 3.9832 0
468 2 C 24.4591 14.6071 5.10055 0
502 8 O 25.7073 14.9963 5.32533 0
511 5 O 30.5349 12.3756 5.43641 0
439 9 Zn 30.8592 14.5981 4.64532 0